/*--------------------------------*- C++ -*----------------------------------*\
| =========                 |                                                 |
| \\      /  F ield         | OpenFOAM: The Open Source CFD Toolbox           |
|  \\    /   O peration     | Version:  2312                                  |
|   \\  /    A nd           | Website:  www.openfoam.com                      |
|    \\/     M anipulation  |                                                 |
\*---------------------------------------------------------------------------*/
FoamFile
{
    version     2.0;
    format      ascii;
    arch        "LSB;label=32;scalar=64";
    class       volScalarField;
    location    "1000";
    object      p;
}
// * * * * * * * * * * * * * * * * * * * * * * * * * * * * * * * * * * * * * //

dimensions      [0 2 -2 0 0 0 0];

internalField   nonuniform List<scalar> 
400
(
-1.12301e-11
-1.07664e-06
-2.55411e-06
-3.8143e-06
-5.22328e-06
-6.54112e-06
-7.91443e-06
-9.25352e-06
-1.06144e-05
-1.19602e-05
-1.33183e-05
-1.46638e-05
-1.60255e-05
-1.73631e-05
-1.8739e-05
-2.00528e-05
-2.14684e-05
-2.2718e-05
-2.42101e-05
-2.52599e-05
-8.2632e-09
-1.08408e-06
-2.55632e-06
-3.8151e-06
-5.2233e-06
-6.5412e-06
-7.9144e-06
-9.25354e-06
-1.06144e-05
-1.19603e-05
-1.33183e-05
-1.46638e-05
-1.60255e-05
-1.73631e-05
-1.87389e-05
-2.00527e-05
-2.14675e-05
-2.27156e-05
-2.42021e-05
-2.52515e-05
-7.90812e-09
-1.0852e-06
-2.55942e-06
-3.81492e-06
-5.22383e-06
-6.54097e-06
-7.91456e-06
-9.25345e-06
-1.06144e-05
-1.19602e-05
-1.33183e-05
-1.46637e-05
-1.60256e-05
-1.7363e-05
-1.87391e-05
-2.00521e-05
-2.14676e-05
-2.27123e-05
-2.42009e-05
-2.52516e-05
-6.0346e-10
-1.07753e-06
-2.56153e-06
-3.81429e-06
-5.22434e-06
-6.54071e-06
-7.91472e-06
-9.25334e-06
-1.06145e-05
-1.19601e-05
-1.33184e-05
-1.46636e-05
-1.60257e-05
-1.73628e-05
-1.87394e-05
-2.00515e-05
-2.14683e-05
-2.27099e-05
-2.42088e-05
-2.52587e-05
9.69923e-09
-1.06468e-06
-2.56266e-06
-3.81344e-06
-5.22473e-06
-6.54048e-06
-7.91486e-06
-9.25326e-06
-1.06146e-05
-1.19601e-05
-1.33185e-05
-1.46636e-05
-1.60258e-05
-1.73626e-05
-1.87396e-05
-2.00511e-05
-2.14692e-05
-2.27086e-05
-2.42222e-05
-2.52689e-05
2.07019e-08
-1.04986e-06
-2.56315e-06
-3.81249e-06
-5.22503e-06
-6.54029e-06
-7.91497e-06
-9.25319e-06
-1.06146e-05
-1.19601e-05
-1.33185e-05
-1.46635e-05
-1.60259e-05
-1.73625e-05
-1.87398e-05
-2.00507e-05
-2.14702e-05
-2.2708e-05
-2.42378e-05
-2.52798e-05
3.09831e-08
-1.03543e-06
-2.56324e-06
-3.81154e-06
-5.22524e-06
-6.54012e-06
-7.91505e-06
-9.25313e-06
-1.06147e-05
-1.196e-05
-1.33185e-05
-1.46635e-05
-1.60259e-05
-1.73624e-05
-1.874e-05
-2.00505e-05
-2.14713e-05
-2.27078e-05
-2.42531e-05
-2.52901e-05
3.94817e-08
-1.02322e-06
-2.56314e-06
-3.81071e-06
-5.22539e-06
-6.53999e-06
-7.91511e-06
-9.25309e-06
-1.06147e-05
-1.196e-05
-1.33186e-05
-1.46635e-05
-1.6026e-05
-1.73623e-05
-1.87402e-05
-2.00503e-05
-2.14722e-05
-2.27078e-05
-2.42663e-05
-2.52985e-05
4.54226e-08
-1.01464e-06
-2.56298e-06
-3.81012e-06
-5.22547e-06
-6.5399e-06
-7.91515e-06
-9.25306e-06
-1.06147e-05
-1.196e-05
-1.33186e-05
-1.46634e-05
-1.6026e-05
-1.73623e-05
-1.87403e-05
-2.00502e-05
-2.14729e-05
-2.2708e-05
-2.42758e-05
-2.53043e-05
4.8319e-08
-1.01061e-06
-2.56289e-06
-3.80985e-06
-5.22551e-06
-6.53985e-06
-7.91517e-06
-9.25304e-06
-1.06147e-05
-1.196e-05
-1.33186e-05
-1.46634e-05
-1.6026e-05
-1.73622e-05
-1.87403e-05
-2.00501e-05
-2.14733e-05
-2.2708e-05
-2.42808e-05
-2.5307e-05
4.79534e-08
-1.01157e-06
-2.56291e-06
-3.80993e-06
-5.22549e-06
-6.53986e-06
-7.91516e-06
-9.25304e-06
-1.06147e-05
-1.196e-05
-1.33186e-05
-1.46634e-05
-1.6026e-05
-1.73622e-05
-1.87403e-05
-2.00501e-05
-2.14733e-05
-2.2708e-05
-2.42807e-05
-2.53063e-05
4.4365e-08
-1.01743e-06
-2.56304e-06
-3.81035e-06
-5.22542e-06
-6.5399e-06
-7.91514e-06
-9.25305e-06
-1.06147e-05
-1.196e-05
-1.33186e-05
-1.46634e-05
-1.6026e-05
-1.73623e-05
-1.87403e-05
-2.00502e-05
-2.14729e-05
-2.27079e-05
-2.42754e-05
-2.53023e-05
3.78456e-08
-1.02764e-06
-2.56318e-06
-3.81105e-06
-5.22529e-06
-6.53999e-06
-7.91508e-06
-9.25308e-06
-1.06147e-05
-1.196e-05
-1.33186e-05
-1.46635e-05
-1.6026e-05
-1.73623e-05
-1.87402e-05
-2.00503e-05
-2.14723e-05
-2.27077e-05
-2.42656e-05
-2.52952e-05
2.89516e-08
-1.04111e-06
-2.56322e-06
-3.81195e-06
-5.2251e-06
-6.54011e-06
-7.91501e-06
-9.25312e-06
-1.06147e-05
-1.196e-05
-1.33185e-05
-1.46635e-05
-1.60259e-05
-1.73624e-05
-1.87401e-05
-2.00505e-05
-2.14714e-05
-2.27077e-05
-2.42524e-05
-2.52856e-05
1.85132e-08
-1.05635e-06
-2.56298e-06
-3.81291e-06
-5.22482e-06
-6.54027e-06
-7.91491e-06
-9.25318e-06
-1.06146e-05
-1.19601e-05
-1.33185e-05
-1.46635e-05
-1.60259e-05
-1.73625e-05
-1.87399e-05
-2.00508e-05
-2.14704e-05
-2.27079e-05
-2.42371e-05
-2.52743e-05
7.63136e-09
-1.07146e-06
-2.56225e-06
-3.81381e-06
-5.22445e-06
-6.54044e-06
-7.91479e-06
-9.25325e-06
-1.06146e-05
-1.19601e-05
-1.33185e-05
-1.46636e-05
-1.60258e-05
-1.73626e-05
-1.87397e-05
-2.00511e-05
-2.14694e-05
-2.27086e-05
-2.42217e-05
-2.52624e-05
-2.25443e-09
-1.08407e-06
-2.56079e-06
-3.81452e-06
-5.22398e-06
-6.54064e-06
-7.91465e-06
-9.25333e-06
-1.06145e-05
-1.19601e-05
-1.33184e-05
-1.46636e-05
-1.60257e-05
-1.73628e-05
-1.87395e-05
-2.00516e-05
-2.14686e-05
-2.271e-05
-2.42088e-05
-2.52515e-05
-8.83391e-09
-1.09097e-06
-2.55824e-06
-3.81495e-06
-5.22337e-06
-6.54087e-06
-7.91447e-06
-9.25343e-06
-1.06144e-05
-1.19602e-05
-1.33183e-05
-1.46637e-05
-1.60256e-05
-1.7363e-05
-1.87392e-05
-2.00522e-05
-2.1468e-05
-2.27125e-05
-2.42014e-05
-2.52438e-05
-8.16406e-09
-1.08862e-06
-2.5546e-06
-3.81484e-06
-5.22275e-06
-6.54107e-06
-7.91431e-06
-9.25353e-06
-1.06144e-05
-1.19603e-05
-1.33183e-05
-1.46638e-05
-1.60255e-05
-1.73632e-05
-1.87389e-05
-2.00529e-05
-2.14679e-05
-2.27162e-05
-2.42034e-05
-2.52433e-05
1.16103e-09
-1.07992e-06
-2.55181e-06
-3.81377e-06
-5.22264e-06
-6.54096e-06
-7.91433e-06
-9.25351e-06
-1.06144e-05
-1.19602e-05
-1.33183e-05
-1.46638e-05
-1.60255e-05
-1.73631e-05
-1.8739e-05
-2.00529e-05
-2.14689e-05
-2.27188e-05
-2.42122e-05
-2.52514e-05
)
;

boundaryField
{
    inlet
    {
        type            zeroGradient;
    }
    outlet
    {
        type            zeroGradient;
    }
    walls
    {
        type            zeroGradient;
    }
    movingWall
    {
        type            zeroGradient;
    }
    frontAndBack
    {
        type            empty;
    }
}


// ************************************************************************* //
