/*--------------------------------*- C++ -*----------------------------------*\
| =========                 |                                                 |
| \\      /  F ield         | OpenFOAM: The Open Source CFD Toolbox           |
|  \\    /   O peration     | Version:  2312                                  |
|   \\  /    A nd           | Website:  www.openfoam.com                      |
|    \\/     M anipulation  |                                                 |
\*---------------------------------------------------------------------------*/
FoamFile
{
    version     2.0;
    format      ascii;
    arch        "LSB;label=32;scalar=64";
    class       surfaceScalarField;
    location    "1000";
    object      phi;
}
// * * * * * * * * * * * * * * * * * * * * * * * * * * * * * * * * * * * * * //

dimensions      [0 3 -1 0 0 0 0];

oriented        oriented;

internalField   nonuniform List<scalar> 
760
(
0.000124998
-4.03409e-12
0.000124998
-3.22645e-12
0.000124998
-8.19895e-14
0.000124998
-3.44891e-13
0.000124998
1.22844e-13
0.000124998
-8.68885e-14
0.000124998
5.13551e-14
0.000124998
-3.30404e-14
0.000124998
2.2576e-14
0.000124998
-1.85105e-14
0.000124998
1.90166e-14
0.000124998
-2.44795e-14
0.000124998
3.66273e-14
0.000124998
-5.71695e-14
0.000124998
9.89205e-14
0.000124998
-1.34747e-13
0.000124998
3.87898e-13
0.000124998
6.93641e-14
0.000124998
3.39502e-12
4.0171e-12
0.000374995
-1.06287e-11
0.000374995
-9.34453e-12
0.000374995
-7.74529e-13
0.000374995
-8.5538e-13
0.000374995
2.12684e-13
0.000374995
-1.74955e-13
0.000374995
9.94629e-14
0.000374995
-6.47382e-14
0.000374995
4.38706e-14
0.000374995
-3.61997e-14
0.000374995
3.71161e-14
0.000374995
-4.77055e-14
0.000374995
7.19852e-14
0.000374995
-1.10173e-13
0.000374995
2.02446e-13
0.000374995
-2.27508e-13
0.000374995
9.68715e-13
0.000374995
7.95061e-13
0.000374995
9.82979e-12
1.06265e-11
0.000624991
-1.68442e-11
0.000624991
-1.57562e-11
0.000624991
-1.86873e-12
0.000624991
-1.32463e-12
0.000624991
2.18067e-13
0.000624991
-2.22431e-13
0.000624991
1.20556e-13
0.000624991
-7.96743e-14
0.000624991
5.33676e-14
0.000624991
-4.44601e-14
0.000624991
4.54556e-14
0.000624991
-5.82468e-14
0.000624991
8.9025e-14
0.000624991
-1.32354e-13
0.000624991
2.63478e-13
0.000624991
-2.20529e-13
0.000624991
1.51583e-12
0.000624991
1.97333e-12
0.000624991
1.66077e-11
1.68847e-11
0.000874988
-2.12773e-11
0.000874988
-2.06866e-11
0.000874988
-2.92252e-12
0.000874988
-1.67318e-12
0.000874988
1.80999e-13
0.000874988
-2.39059e-13
0.000874988
1.23917e-13
0.000874988
-8.31985e-14
0.000874988
5.49377e-14
0.000874988
-4.63499e-14
0.000874988
4.72083e-14
0.000874988
-6.02322e-14
0.000874988
9.36326e-14
0.000874988
-1.34065e-13
0.000874988
2.92433e-13
0.000874988
-1.6045e-13
0.000874988
1.94532e-12
0.000874988
3.14096e-12
0.000874988
2.19002e-11
2.13543e-11
0.00112498
-2.31527e-11
0.00112498
-2.30812e-11
0.00112498
-3.59668e-12
0.00112498
-1.82459e-12
0.00112498
1.35158e-13
0.00112498
-2.29423e-13
0.00112498
1.15781e-13
0.00112498
-7.86546e-14
0.00112498
5.10648e-14
0.00112498
-4.38239e-14
0.00112498
4.4408e-14
0.00112498
-5.63009e-14
0.00112498
8.9447e-14
0.00112498
-1.22391e-13
0.00112498
2.9378e-13
0.00112498
-8.51459e-14
0.00112498
2.17482e-12
0.00112498
3.94037e-12
0.00112498
2.46081e-11
2.32317e-11
0.00137498
-2.2205e-11
0.00137498
-2.24905e-11
0.00137498
-3.68321e-12
0.00137498
-1.72967e-12
0.00137498
1.04882e-13
0.00137498
-1.96522e-13
0.00137498
1.00633e-13
0.00137498
-6.83796e-14
0.00137498
4.35219e-14
0.00137498
-3.82438e-14
0.00137498
3.84732e-14
0.00137498
-4.83575e-14
0.00137498
7.89731e-14
0.00137498
-1.02543e-13
0.00137498
2.70071e-13
0.00137498
-2.27422e-14
0.00137498
2.14915e-12
0.00137498
4.14834e-12
0.00137498
2.42486e-11
2.22299e-11
0.00162498
-1.85738e-11
0.00162498
-1.89638e-11
0.00162498
-3.11209e-12
0.00162498
-1.3778e-12
0.00162498
1.03258e-13
0.00162498
-1.43633e-13
0.00162498
8.1483e-14
0.00162498
-5.40779e-14
0.00162498
3.35622e-14
0.00162498
-3.05918e-14
0.00162498
3.0429e-14
0.00162498
-3.7742e-14
0.00162498
6.40004e-14
0.00162498
-7.81718e-14
0.00162498
2.23926e-13
0.00162498
1.02501e-14
0.00162498
1.85222e-12
0.00162498
3.68268e-12
0.00162498
2.08483e-11
1.84753e-11
0.00187498
-1.27088e-11
0.00187498
-1.29438e-11
0.00187498
-1.94087e-12
0.00187498
-7.98881e-13
0.00187498
1.32037e-13
0.00187498
-7.5078e-14
0.00187498
6.01651e-14
0.00187498
-3.70488e-14
0.00187498
2.20946e-14
0.00187498
-2.15619e-14
0.00187498
2.09986e-14
0.00187498
-2.54448e-14
0.00187498
4.5867e-14
0.00187498
-5.16454e-14
0.00187498
1.59043e-13
0.00187498
9.25999e-15
0.00187498
1.30955e-12
0.00187498
2.59223e-12
0.00187498
1.48393e-11
1.24135e-11
0.00212498
-5.28357e-12
0.00212498
-5.16308e-12
0.00212498
-3.32021e-13
0.00212498
-5.89018e-14
0.00212498
1.8292e-13
0.00212498
3.33759e-15
0.00212498
3.75657e-14
0.00212498
-1.83608e-14
0.00212498
9.76699e-15
0.00212498
-1.16857e-14
0.00212498
1.07385e-14
0.00212498
-1.21651e-14
0.00212498
2.56653e-14
0.00212498
-2.42788e-14
0.00212498
8.06914e-14
0.00212498
-1.96997e-14
0.00212498
5.84053e-13
0.00212498
1.03392e-12
0.00212498
6.9547e-12
4.72347e-12
0.00237498
2.88623e-12
0.00237498
3.45858e-12
0.00237498
1.47948e-12
0.00237498
7.50339e-13
0.00237498
2.40619e-13
0.00237498
8.47566e-14
0.00237498
1.40116e-14
0.00237498
1.04854e-15
0.00237498
-2.90207e-15
0.00237498
-1.37892e-15
0.00237498
7.89463e-17
0.00237498
1.52188e-15
0.00237498
4.36537e-15
0.00237498
3.28952e-15
0.00237498
-4.54398e-15
0.00237498
-6.2876e-14
0.00237498
-2.33898e-13
0.00237498
-7.59543e-13
0.00237498
-1.87442e-12
-3.76407e-12
0.00262498
1.09205e-11
0.00262498
1.19155e-11
0.00262498
3.22375e-12
0.00262498
1.52463e-12
0.00262498
2.86537e-13
0.00262498
1.61807e-13
0.00262498
-1.04414e-14
0.00262498
2.03091e-14
0.00262498
-1.54819e-14
0.00262498
8.97534e-15
0.00262498
-1.05805e-14
0.00262498
1.51549e-14
0.00262498
-1.71037e-14
0.00262498
3.0809e-14
0.00262498
-8.92937e-14
0.00262498
-1.02571e-13
0.00262498
-1.03986e-12
0.00262498
-2.51778e-12
0.00262498
-1.06213e-11
-1.21457e-11
0.00287498
1.79515e-11
0.00287498
1.92168e-11
0.00287498
4.63675e-12
0.00287498
2.16291e-12
0.00287498
3.03295e-13
0.00287498
2.27635e-13
0.00287498
-3.55904e-14
0.00287498
3.85786e-14
0.00287498
-2.75223e-14
0.00287498
1.90073e-14
0.00287498
-2.0862e-14
0.00287498
2.82387e-14
0.00287498
-3.78034e-14
0.00287498
5.79882e-14
0.00287498
-1.66319e-13
0.00287498
-1.21504e-13
0.00287498
-1.73069e-12
0.00287498
-3.97358e-12
0.00287498
-1.82658e-11
-1.95224e-11
0.00312498
2.31984e-11
0.00312498
2.44859e-11
0.00312498
5.50013e-12
0.00312498
2.58218e-12
0.00312498
2.78811e-13
0.00312498
2.76605e-13
0.00312498
-6.07861e-14
0.00312498
5.50092e-14
0.00312498
-3.85292e-14
0.00312498
2.82759e-14
0.00312498
-3.03094e-14
0.00312498
4.02518e-14
0.00312498
-5.67425e-14
0.00312498
8.41836e-14
0.00312498
-2.29254e-13
0.00312498
-1.07079e-13
0.00312498
-2.21964e-12
0.00312498
-4.9034e-12
0.00312498
-2.38964e-11
-2.5077e-11
0.00337498
2.60435e-11
0.00337498
2.70589e-11
0.00337498
5.67819e-12
0.00337498
2.7307e-12
0.00337498
2.1004e-13
0.00337498
3.05002e-13
0.00337498
-8.45998e-14
0.00337498
6.8647e-14
0.00337498
-4.78434e-14
0.00337498
3.62581e-14
0.00337498
-3.83875e-14
0.00337498
5.04748e-14
0.00337498
-7.27784e-14
0.00337498
1.08019e-13
0.00337498
-2.73235e-13
0.00337498
-5.50697e-14
0.00337498
-2.4495e-12
0.00337498
-5.16476e-12
0.00337498
-2.68108e-11
-2.81522e-11
0.00362498
2.61095e-11
0.00362498
2.65819e-11
0.00362498
5.14795e-12
0.00362498
2.59685e-12
0.00362498
1.05235e-13
0.00362498
3.10971e-13
0.00362498
-1.04587e-13
0.00362498
7.8345e-14
0.00362498
-5.46047e-14
0.00362498
4.22171e-14
0.00362498
-4.43447e-14
0.00362498
5.79879e-14
0.00362498
-8.45113e-14
0.00362498
1.27117e-13
0.00362498
-2.94952e-13
0.00362498
2.7798e-14
0.00362498
-2.4017e-12
0.00362498
-4.72727e-12
0.00362498
-2.66181e-11
-2.83305e-11
0.00387498
2.33404e-11
0.00387498
2.31088e-11
0.00387498
4.01979e-12
0.00387498
2.21262e-12
0.00387498
-1.50691e-14
0.00387498
2.94097e-13
0.00387498
-1.17111e-13
0.00387498
8.25047e-14
0.00387498
-5.75782e-14
0.00387498
4.5169e-14
0.00387498
-4.71791e-14
0.00387498
6.14431e-14
0.00387498
-9.00459e-14
0.00387498
1.37821e-13
0.00387498
-2.92164e-13
0.00387498
1.22742e-13
0.00387498
-2.09991e-12
0.00387498
-3.69413e-12
0.00387498
-2.33393e-11
-2.55189e-11
0.00412499
1.80889e-11
0.00412499
1.71966e-11
0.00412499
2.5443e-12
0.00412499
1.64974e-12
0.00412499
-1.19185e-13
0.00412499
2.54065e-13
0.00412499
-1.17175e-13
0.00412499
7.88878e-14
0.00412499
-5.50951e-14
0.00412499
4.36882e-14
0.00412499
-4.54385e-14
0.00412499
5.90253e-14
0.00412499
-8.67721e-14
0.00412499
1.34978e-13
0.00412499
-2.62525e-13
0.00412499
1.99565e-13
0.00412499
-1.60652e-12
0.00412499
-2.31046e-12
0.00412499
-1.7509e-11
-2.004e-11
0.00437499
1.12138e-11
0.00437499
1.00028e-11
0.00437499
1.10252e-12
0.00437499
1.00684e-12
0.00437499
-1.66757e-13
0.00437499
1.88712e-13
0.00437499
-9.8265e-14
0.00437499
6.41316e-14
0.00437499
-4.47577e-14
0.00437499
3.57959e-14
0.00437499
-3.71055e-14
0.00437499
4.81047e-14
0.00437499
-7.08902e-14
0.00437499
1.11632e-13
0.00437499
-2.01565e-13
0.00437499
2.188e-13
0.00437499
-1.00997e-12
0.00437499
-9.55344e-13
0.00437499
-1.02787e-11
-1.27333e-11
0.00462499
4.18801e-12
0.00462499
3.38821e-12
0.00462499
1.73271e-13
0.00462499
3.83459e-13
0.00462499
-1.10905e-13
0.00462499
8.99622e-14
0.00462499
-5.11647e-14
0.00462499
3.27853e-14
0.00462499
-2.28417e-14
0.00462499
1.83786e-14
0.00462499
-1.90064e-14
0.00462499
2.46091e-14
0.00462499
-3.63372e-14
0.00462499
5.76451e-14
0.00462499
-9.85421e-14
0.00462499
1.32946e-13
0.00462499
-3.98305e-13
0.00462499
-1.12188e-13
0.00462499
-3.5259e-12
-5.06818e-12
0.004875
0.004875
0.004875
0.004875
0.004875
0.004875
0.004875
0.004875
0.004875
0.004875
0.004875
0.004875
0.004875
0.004875
0.004875
0.004875
0.004875
0.004875
0.004875
)
;

boundaryField
{
    inlet
    {
        type            calculated;
        value           nonuniform List<scalar> 
20
(
-0.000124998
-0.000374995
-0.000624991
-0.000874988
-0.00112498
-0.00137498
-0.00162498
-0.00187498
-0.00212498
-0.00237498
-0.00262498
-0.00287498
-0.00312498
-0.00337498
-0.00362498
-0.00387498
-0.00412499
-0.00437499
-0.00462499
-0.004875
)
;
    }
    outlet
    {
        type            calculated;
        value           nonuniform List<scalar> 
20
(
0.000124998
0.000374995
0.000624991
0.000874988
0.00112498
0.00137498
0.00162498
0.00187498
0.00212498
0.00237498
0.00262498
0.00287498
0.00312498
0.00337498
0.00362498
0.00387498
0.00412499
0.00437499
0.00462499
0.004875
)
;
    }
    walls
    {
        type            calculated;
        value           uniform 0;
    }
    movingWall
    {
        type            calculated;
        value           uniform 0;
    }
    frontAndBack
    {
        type            empty;
        value           nonuniform List<scalar> 0();
    }
}


// ************************************************************************* //
