/*--------------------------------*- C++ -*----------------------------------*\
| =========                 |                                                 |
| \\      /  F ield         | OpenFOAM: The Open Source CFD Toolbox           |
|  \\    /   O peration     | Version:  2312                                  |
|   \\  /    A nd           | Website:  www.openfoam.com                      |
|    \\/     M anipulation  |                                                 |
\*---------------------------------------------------------------------------*/
FoamFile
{
    version     2.0;
    format      ascii;
    arch        "LSB;label=32;scalar=64";
    class       volVectorField;
    location    "1000";
    object      U;
}
// * * * * * * * * * * * * * * * * * * * * * * * * * * * * * * * * * * * * * //

dimensions      [0 1 -1 0 0 0 0];

internalField   nonuniform List<vector> 
400
(
(0.0249996 -5.6645e-11 0)
(0.0249996 -3.2061e-11 0)
(0.0249996 5.92664e-12 0)
(0.0249996 -6.5401e-12 0)
(0.0249996 3.46749e-12 0)
(0.0249996 -2.17813e-12 0)
(0.0249996 1.3313e-12 0)
(0.0249996 -8.48919e-13 0)
(0.0249996 5.84282e-13 0)
(0.0249996 -4.76211e-13 0)
(0.0249996 4.90125e-13 0)
(0.0249996 -6.31598e-13 0)
(0.0249996 9.38851e-13 0)
(0.0249996 -1.48619e-12 0)
(0.0249996 2.44408e-12 0)
(0.0249996 -3.86168e-12 0)
(0.0249996 7.30468e-12 0)
(0.0249996 -6.76784e-12 0)
(0.0249996 3.43332e-11 0)
(0.0249996 5.59691e-11 0)
(0.0749989 -2.89398e-10 0)
(0.0749989 -2.44276e-10 0)
(0.0749989 -1.32644e-11 0)
(0.0749989 -2.35116e-11 0)
(0.0749989 7.16952e-12 0)
(0.0749989 -5.37308e-12 0)
(0.0749989 3.12632e-12 0)
(0.0749989 -2.0202e-12 0)
(0.0749989 1.37599e-12 0)
(0.0749989 -1.13087e-12 0)
(0.0749989 1.16093e-12 0)
(0.0749989 -1.49393e-12 0)
(0.0749989 2.2417e-12 0)
(0.0749989 -3.47602e-12 0)
(0.0749989 6.15225e-12 0)
(0.0749989 -7.80707e-12 0)
(0.0749989 2.64845e-11 0)
(0.0749989 1.30188e-11 0)
(0.0749989 2.5665e-10 0)
(0.0749989 2.88773e-10 0)
(0.124998 -5.58102e-10 0)
(0.124998 -5.07321e-10 0)
(0.124998 -5.14142e-11 0)
(0.124998 -4.40757e-11 0)
(0.124998 9.06531e-12 0)
(0.124998 -8.18707e-12 0)
(0.124998 4.55207e-12 0)
(0.124998 -2.98313e-12 0)
(0.124998 2.01171e-12 0)
(0.124998 -1.6664e-12 0)
(0.124998 1.70663e-12 0)
(0.124998 -2.19107e-12 0)
(0.124998 3.32304e-12 0)
(0.124998 -5.02704e-12 0)
(0.124998 9.55864e-12 0)
(0.124998 -9.52164e-12 0)
(0.124998 5.00732e-11 0)
(0.124998 5.35549e-11 0)
(0.124998 5.33749e-10 0)
(0.124998 5.58785e-10 0)
(0.174998 -7.83665e-10 0)
(0.174998 -7.48133e-10 0)
(0.174998 -9.78033e-11 0)
(0.174998 -6.15593e-11 0)
(0.174998 8.26124e-12 0)
(0.174998 -9.52987e-12 0)
(0.174998 5.04424e-12 0)
(0.174998 -3.36052e-12 0)
(0.174998 2.23688e-12 0)
(0.174998 -1.87328e-12 0)
(0.174998 1.91226e-12 0)
(0.174998 -2.44617e-12 0)
(0.174998 3.76547e-12 0)
(0.174998 -5.5077e-12 0)
(0.174998 1.14318e-11 0)
(0.174998 -7.99061e-12 0)
(0.174998 7.08239e-11 0)
(0.174998 1.04041e-10 0)
(0.174998 7.8969e-10 0)
(0.174998 7.8619e-10 0)
(0.224997 -9.15996e-10 0)
(0.224997 -9.03097e-10 0)
(0.224997 -1.35272e-10 0)
(0.224997 -7.22416e-11 0)
(0.224997 6.30786e-12 0)
(0.224997 -9.63632e-12 0)
(0.224997 4.8965e-12 0)
(0.224997 -3.3129e-12 0)
(0.224997 2.17026e-12 0)
(0.224997 -1.8446e-12 0)
(0.224997 1.87467e-12 0)
(0.224997 -2.38534e-12 0)
(0.224997 3.74451e-12 0)
(0.224997 -5.24845e-12 0)
(0.224997 1.20082e-11 0)
(0.224997 -4.94712e-12 0)
(0.224997 8.4752e-11 0)
(0.224997 1.46465e-10 0)
(0.224997 9.58587e-10 0)
(0.224997 9.19554e-10 0)
(0.274996 -9.35296e-10 0)
(0.274996 -9.4146e-10 0)
(0.274996 -1.51976e-10 0)
(0.274996 -7.3664e-11 0)
(0.274996 4.57713e-12 0)
(0.274996 -8.74521e-12 0)
(0.274996 4.38695e-12 0)
(0.274996 -2.99244e-12 0)
(0.274996 1.92408e-12 0)
(0.274996 -1.66857e-12 0)
(0.274996 1.68549e-12 0)
(0.274996 -2.12869e-12 0)
(0.274996 3.42559e-12 0)
(0.274996 -4.56651e-12 0)
(0.274996 1.15252e-11 0)
(0.274996 -1.94613e-12 0)
(0.274996 8.91773e-11 0)
(0.274996 1.68247e-10 0)
(0.274996 1.00813e-09 0)
(0.274996 9.37994e-10 0)
(0.324996 -8.407e-10 0)
(0.324996 -8.56639e-10 0)
(0.324996 -1.42348e-10 0)
(0.324996 -6.46271e-11 0)
(0.324996 3.85988e-12 0)
(0.324996 -6.98914e-12 0)
(0.324996 3.67513e-12 0)
(0.324996 -2.48491e-12 0)
(0.324996 1.56254e-12 0)
(0.324996 -1.39499e-12 0)
(0.324996 1.3966e-12 0)
(0.324996 -1.7451e-12 0)
(0.324996 2.89996e-12 0)
(0.324996 -3.65019e-12 0)
(0.324996 1.00941e-11 0)
(0.324996 7.30036e-14 0)
(0.324996 8.26737e-11 0)
(0.324996 1.63263e-10 0)
(0.324996 9.30626e-10 0)
(0.324996 8.39934e-10 0)
(0.374996 -6.45048e-10 0)
(0.374996 -6.59747e-10 0)
(0.374996 -1.0637e-10 0)
(0.374996 -4.55227e-11 0)
(0.374996 4.43649e-12 0)
(0.374996 -4.50845e-12 0)
(0.374996 2.85177e-12 0)
(0.374996 -1.84615e-12 0)
(0.374996 1.12601e-12 0)
(0.374996 -1.05505e-12 0)
(0.374996 1.04054e-12 0)
(0.374996 -1.27816e-12 0)
(0.374996 2.22536e-12 0)
(0.374996 -2.61336e-12 0)
(0.374996 7.82766e-12 0)
(0.374996 7.05409e-13 0)
(0.374996 6.54308e-11 0)
(0.374996 1.31081e-10 0)
(0.374996 7.36537e-10 0)
(0.374996 6.37869e-10 0)
(0.424995 -3.71641e-10 0)
(0.424995 -3.75348e-10 0)
(0.424995 -4.87367e-11 0)
(0.424995 -1.83383e-11 0)
(0.424995 6.14987e-12 0)
(0.424995 -1.50341e-12 0)
(0.424995 1.96677e-12 0)
(0.424995 -1.12122e-12 0)
(0.424995 6.43908e-13 0)
(0.424995 -6.719e-13 0)
(0.424995 6.41504e-13 0)
(0.424995 -7.59883e-13 0)
(0.424995 1.44775e-12 0)
(0.424995 -1.52503e-12 0)
(0.424995 4.90139e-12 0)
(0.424995 5.82613e-15 0)
(0.424995 3.92836e-11 0)
(0.424995 7.61136e-11 0)
(0.424995 4.5022e-10 0)
(0.424995 3.55125e-10 0)
(0.474995 -5.10708e-11 0)
(0.474995 -3.75173e-11 0)
(0.474995 2.22484e-11 0)
(0.474995 1.36493e-11 0)
(0.474995 8.49402e-12 0)
(0.474995 1.76746e-12 0)
(0.474995 1.04106e-12 0)
(0.474995 -3.49493e-13 0)
(0.474995 1.38767e-13 0)
(0.474995 -2.63869e-13 0)
(0.474995 2.18579e-13 0)
(0.474995 -2.1488e-13 0)
(0.474995 6.07426e-13 0)
(0.474995 -4.21011e-13 0)
(0.474995 1.55673e-12 0)
(0.474995 -1.59674e-12 0)
(0.474995 7.41715e-12 0)
(0.474995 6.50946e-12 0)
(0.474995 1.05996e-10 0)
(0.474995 2.27075e-11 0)
(0.524995 2.81951e-10 0)
(0.524995 3.14204e-10 0)
(0.524995 9.60901e-11 0)
(0.524995 4.6371e-11 0)
(0.524995 1.07496e-11 0)
(0.524995 5.01112e-12 0)
(0.524995 7.88488e-14 0)
(0.524995 4.33212e-13 0)
(0.524995 -3.71073e-13 0)
(0.524995 1.53519e-13 0)
(0.524995 -2.1211e-13 0)
(0.524995 3.36801e-13 0)
(0.524995 -2.58119e-13 0)
(0.524995 6.84376e-13 0)
(0.524995 -1.91935e-12 0)
(0.524995 -3.43191e-12 0)
(0.524995 -2.61239e-11 0)
(0.524995 -6.72686e-11 0)
(0.524995 -2.55929e-10 0)
(0.524995 -3.23895e-10 0)
(0.574995 5.91685e-10 0)
(0.574995 6.38857e-10 0)
(0.574995 1.61699e-10 0)
(0.574995 7.55648e-11 0)
(0.574995 1.21531e-11 0)
(0.574995 7.934e-12 0)
(0.574995 -9.18194e-13 0)
(0.574995 1.19301e-12 0)
(0.574995 -8.68658e-13 0)
(0.574995 5.65643e-13 0)
(0.574995 -6.35475e-13 0)
(0.574995 8.7674e-13 0)
(0.574995 -1.11197e-12 0)
(0.574995 1.7839e-12 0)
(0.574995 -5.22597e-12 0)
(0.574995 -4.75618e-12 0)
(0.574995 -5.70319e-11 0)
(0.574995 -1.34054e-10 0)
(0.574995 -5.93573e-10 0)
(0.574995 -6.47836e-10 0)
(0.624996 8.44378e-10 0)
(0.624996 8.98081e-10 0)
(0.624996 2.09038e-10 0)
(0.624996 9.74048e-11 0)
(0.624996 1.20757e-11 0)
(0.624996 1.02787e-11 0)
(0.624996 -1.93617e-12 0)
(0.624996 1.89654e-12 0)
(0.624996 -1.33573e-12 0)
(0.624996 9.56772e-13 0)
(0.624996 -1.03532e-12 0)
(0.624996 1.38525e-12 0)
(0.624996 -1.91601e-12 0)
(0.624996 2.86226e-12 0)
(0.624996 -8.0835e-12 0)
(0.624996 -4.93171e-12 0)
(0.624996 -8.13636e-11 0)
(0.624996 -1.83637e-10 0)
(0.624996 -8.67261e-10 0)
(0.624996 -9.1399e-10 0)
(0.674996 1.01129e-09 0)
(0.674996 1.06008e-09 0)
(0.674996 2.30686e-10 0)
(0.674996 1.09084e-10 0)
(0.674996 1.01844e-11 0)
(0.674996 1.18546e-11 0)
(0.674996 -2.93617e-12 0)
(0.674996 2.50873e-12 0)
(0.674996 -1.74997e-12 0)
(0.674996 1.30824e-12 0)
(0.674996 -1.39245e-12 0)
(0.674996 1.8384e-12 0)
(0.674996 -2.62856e-12 0)
(0.674996 3.88213e-12 0)
(0.674996 -1.02637e-11 0)
(0.674996 -3.59035e-12 0)
(0.674996 -9.61259e-11 0)
(0.674996 -2.08351e-10 0)
(0.674996 -1.0437e-09 0)
(0.674996 -1.09207e-09 0)
(0.724996 1.07174e-09 0)
(0.724996 1.1035e-09 0)
(0.724996 2.23198e-10 0)
(0.724996 1.09276e-10 0)
(0.724996 6.5627e-12 0)
(0.724996 1.25551e-11 0)
(0.724996 -3.84439e-12 0)
(0.724996 2.99008e-12 0)
(0.724996 -2.08264e-12 0)
(0.724996 1.59625e-12 0)
(0.724996 -1.68252e-12 0)
(0.724996 2.20519e-12 0)
(0.724996 -3.20146e-12 0)
(0.724996 4.77288e-12 0)
(0.724996 -1.16077e-11 0)
(0.724996 -7.58802e-13 0)
(0.724996 -9.97442e-11 0)
(0.724996 -2.04455e-10 0)
(0.724996 -1.09999e-09 0)
(0.724996 -1.15975e-09 0)
(0.774997 1.01605e-09 0)
(0.774997 1.02113e-09 0)
(0.774997 1.88114e-10 0)
(0.774997 9.83967e-11 0)
(0.774997 1.77656e-12 0)
(0.774997 1.23489e-11 0)
(0.774997 -4.54422e-12 0)
(0.774997 3.29029e-12 0)
(0.774997 -2.29457e-12 0)
(0.774997 1.78872e-12 0)
(0.774997 -1.87287e-12 0)
(0.774997 2.4433e-12 0)
(0.774997 -3.57368e-12 0)
(0.774997 5.42008e-12 0)
(0.774997 -1.20191e-11 0)
(0.774997 3.06662e-12 0)
(0.774997 -9.23279e-11 0)
(0.774997 -1.73184e-10 0)
(0.774997 -1.02748e-09 0)
(0.774997 -1.10579e-09 0)
(0.824998 8.48579e-10 0)
(0.824998 8.23858e-10 0)
(0.824998 1.32684e-10 0)
(0.824998 7.85344e-11 0)
(0.824998 -3.08081e-12 0)
(0.824998 1.12174e-11 0)
(0.824998 -4.85221e-12 0)
(0.824998 3.32805e-12 0)
(0.824998 -2.32396e-12 0)
(0.824998 1.83453e-12 0)
(0.824998 -1.91141e-12 0)
(0.824998 2.48552e-12 0)
(0.824998 -3.64977e-12 0)
(0.824998 5.63624e-12 0)
(0.824998 -1.13993e-11 0)
(0.824998 6.85684e-12 0)
(0.824998 -7.56063e-11 0)
(0.824998 -1.21532e-10 0)
(0.824998 -8.35858e-10 0)
(0.824998 -9.33188e-10 0)
(0.874998 5.92682e-10 0)
(0.874998 5.4684e-10 0)
(0.874998 7.0495e-11 0)
(0.874998 5.3084e-11 0)
(0.874998 -6.34578e-12 0)
(0.874998 9.02904e-12 0)
(0.874998 -4.47369e-12 0)
(0.874998 2.95302e-12 0)
(0.874998 -2.06255e-12 0)
(0.874998 1.64364e-12 0)
(0.874998 -1.70615e-12 0)
(0.874998 2.21374e-12 0)
(0.874998 -3.25874e-12 0)
(0.874998 5.10785e-12 0)
(0.874998 -9.51539e-12 0)
(0.874998 8.97975e-12 0)
(0.874998 -5.25367e-11 0)
(0.874998 -6.29892e-11 0)
(0.874998 -5.59596e-10 0)
(0.874998 -6.64335e-10 0)
(0.924999 3.01921e-10 0)
(0.924999 2.57959e-10 0)
(0.924999 2.05016e-11 0)
(0.924999 2.67209e-11 0)
(0.924999 -6.20504e-12 0)
(0.924999 5.64096e-12 0)
(0.924999 -3.11027e-12 0)
(0.924999 2.00187e-12 0)
(0.924999 -1.39693e-12 0)
(0.924999 1.12115e-12 0)
(0.924999 -1.16052e-12 0)
(0.924999 1.50345e-12 0)
(0.924999 -2.21746e-12 0)
(0.924999 3.51237e-12 0)
(0.924999 -6.12312e-12 0)
(0.924999 7.64712e-12 0)
(0.924999 -2.73348e-11 0)
(0.924999 -1.65095e-11 0)
(0.924999 -2.6688e-10 0)
(0.924999 -3.52058e-10 0)
(0.975 5.76028e-11 0)
(0.975 3.26847e-11 0)
(0.975 -5.23135e-12 0)
(0.975 6.68438e-12 0)
(0.975 -3.39301e-12 0)
(0.975 2.17877e-12 0)
(0.975 -1.33076e-12 0)
(0.975 8.44944e-13 0)
(0.975 -5.8607e-13 0)
(0.975 4.74861e-13 0)
(0.975 -4.89934e-13 0)
(0.975 6.32953e-13 0)
(0.975 -9.37651e-13 0)
(0.975 1.49113e-12 0)
(0.975 -2.4404e-12 0)
(0.975 3.86429e-12 0)
(0.975 -7.35956e-12 0)
(0.975 6.57468e-12 0)
(0.975 -3.54547e-11 0)
(0.975 -7.64427e-11 0)
)
;

boundaryField
{
    inlet
    {
        type            zeroGradient;
    }
    outlet
    {
        type            zeroGradient;
    }
    walls
    {
        type            noSlip;
    }
    movingWall
    {
        type            movingWallVelocity;
        value           uniform (1 0 0);
    }
    frontAndBack
    {
        type            empty;
    }
}


// ************************************************************************* //
