/*--------------------------------*- C++ -*----------------------------------*\
| =========                 |                                                 |
| \\      /  F ield         | OpenFOAM: The Open Source CFD Toolbox           |
|  \\    /   O peration     | Version:  2312                                  |
|   \\  /    A nd           | Website:  www.openfoam.com                      |
|    \\/     M anipulation  |                                                 |
\*---------------------------------------------------------------------------*/
FoamFile
{
    version     2.0;
    format      ascii;
    arch        "LSB;label=32;scalar=64";
    class       volVectorField;
    location    "1000";
    object      Uerr;
}
// * * * * * * * * * * * * * * * * * * * * * * * * * * * * * * * * * * * * * //

dimensions      [0 1 -1 0 0 0 0];

internalField   nonuniform List<vector> 
400
(
(-3.63903e-07 -5.6645e-11 0)
(-3.62922e-07 -3.2061e-11 0)
(-3.62589e-07 5.92664e-12 0)
(-3.62669e-07 -6.5401e-12 0)
(-3.62586e-07 3.46749e-12 0)
(-3.62632e-07 -2.17813e-12 0)
(-3.62604e-07 1.3313e-12 0)
(-3.6262e-07 -8.48919e-13 0)
(-3.62611e-07 5.84282e-13 0)
(-3.62615e-07 -4.76211e-13 0)
(-3.62616e-07 4.90125e-13 0)
(-3.62611e-07 -6.31598e-13 0)
(-3.62621e-07 9.38851e-13 0)
(-3.62603e-07 -1.48619e-12 0)
(-3.62635e-07 2.44408e-12 0)
(-3.62583e-07 -3.86168e-12 0)
(-3.62677e-07 7.30468e-12 0)
(-3.62588e-07 -6.76784e-12 0)
(-3.62949e-07 3.43332e-11 0)
(-3.63939e-07 5.59691e-11 0)
(-1.07934e-06 -2.89398e-10 0)
(-1.07765e-06 -2.44276e-10 0)
(-1.07685e-06 -1.32644e-11 0)
(-1.07705e-06 -2.35116e-11 0)
(-1.07685e-06 7.16952e-12 0)
(-1.07696e-06 -5.37308e-12 0)
(-1.07689e-06 3.12632e-12 0)
(-1.07693e-06 -2.0202e-12 0)
(-1.07691e-06 1.37599e-12 0)
(-1.07692e-06 -1.13087e-12 0)
(-1.07692e-06 1.16093e-12 0)
(-1.07691e-06 -1.49393e-12 0)
(-1.07693e-06 2.2417e-12 0)
(-1.07689e-06 -3.47602e-12 0)
(-1.07696e-06 6.15225e-12 0)
(-1.07684e-06 -7.80707e-12 0)
(-1.07707e-06 2.64845e-11 0)
(-1.07685e-06 1.30188e-11 0)
(-1.07772e-06 2.5665e-10 0)
(-1.07942e-06 2.88773e-10 0)
(-1.76909e-06 -5.58102e-10 0)
(-1.76755e-06 -5.07321e-10 0)
(-1.76649e-06 -5.14142e-11 0)
(-1.76679e-06 -4.40757e-11 0)
(-1.76651e-06 9.06531e-12 0)
(-1.76666e-06 -8.18707e-12 0)
(-1.76657e-06 4.55207e-12 0)
(-1.76662e-06 -2.98313e-12 0)
(-1.76659e-06 2.01171e-12 0)
(-1.7666e-06 -1.6664e-12 0)
(-1.7666e-06 1.70663e-12 0)
(-1.76659e-06 -2.19107e-12 0)
(-1.76662e-06 3.32304e-12 0)
(-1.76656e-06 -5.02704e-12 0)
(-1.76667e-06 9.55864e-12 0)
(-1.7665e-06 -9.52164e-12 0)
(-1.76682e-06 5.00732e-11 0)
(-1.76649e-06 5.35549e-11 0)
(-1.76765e-06 5.33749e-10 0)
(-1.7692e-06 5.58785e-10 0)
(-2.416e-06 -7.83665e-10 0)
(-2.41517e-06 -7.48133e-10 0)
(-2.414e-06 -9.78033e-11 0)
(-2.41441e-06 -6.15593e-11 0)
(-2.41407e-06 8.26124e-12 0)
(-2.41426e-06 -9.52987e-12 0)
(-2.41415e-06 5.04424e-12 0)
(-2.41422e-06 -3.36052e-12 0)
(-2.41418e-06 2.23688e-12 0)
(-2.41419e-06 -1.87328e-12 0)
(-2.4142e-06 1.91226e-12 0)
(-2.41418e-06 -2.44617e-12 0)
(-2.41422e-06 3.76547e-12 0)
(-2.41414e-06 -5.5077e-12 0)
(-2.41427e-06 1.14318e-11 0)
(-2.41406e-06 -7.99061e-12 0)
(-2.41445e-06 7.08239e-11 0)
(-2.414e-06 1.04041e-10 0)
(-2.41529e-06 7.8969e-10 0)
(-2.4161e-06 7.8619e-10 0)
(-3.00395e-06 -9.15996e-10 0)
(-3.00413e-06 -9.03097e-10 0)
(-3.00298e-06 -1.35272e-10 0)
(-3.00351e-06 -7.22416e-11 0)
(-3.00314e-06 6.30786e-12 0)
(-3.00335e-06 -9.63632e-12 0)
(-3.00322e-06 4.8965e-12 0)
(-3.0033e-06 -3.3129e-12 0)
(-3.00326e-06 2.17026e-12 0)
(-3.00327e-06 -1.8446e-12 0)
(-3.00328e-06 1.87467e-12 0)
(-3.00325e-06 -2.38534e-12 0)
(-3.0033e-06 3.74451e-12 0)
(-3.00322e-06 -5.24845e-12 0)
(-3.00336e-06 1.20082e-11 0)
(-3.00313e-06 -4.94712e-12 0)
(-3.00355e-06 8.4752e-11 0)
(-3.00297e-06 1.46465e-10 0)
(-3.00426e-06 9.58587e-10 0)
(-3.00402e-06 9.19554e-10 0)
(-3.51825e-06 -9.35296e-10 0)
(-3.51956e-06 -9.4146e-10 0)
(-3.5185e-06 -1.51976e-10 0)
(-3.51915e-06 -7.3664e-11 0)
(-3.51876e-06 4.57713e-12 0)
(-3.519e-06 -8.74521e-12 0)
(-3.51886e-06 4.38695e-12 0)
(-3.51894e-06 -2.99244e-12 0)
(-3.5189e-06 1.92408e-12 0)
(-3.51891e-06 -1.66857e-12 0)
(-3.51892e-06 1.68549e-12 0)
(-3.51889e-06 -2.12869e-12 0)
(-3.51894e-06 3.42559e-12 0)
(-3.51885e-06 -4.56651e-12 0)
(-3.51901e-06 1.15252e-11 0)
(-3.51875e-06 -1.94613e-12 0)
(-3.51919e-06 8.91773e-11 0)
(-3.51849e-06 1.68247e-10 0)
(-3.51969e-06 1.00813e-09 0)
(-3.51829e-06 9.37994e-10 0)
(-3.94607e-06 -8.407e-10 0)
(-3.94843e-06 -8.56639e-10 0)
(-3.94751e-06 -1.42348e-10 0)
(-3.94827e-06 -6.46271e-11 0)
(-3.94788e-06 3.85988e-12 0)
(-3.94813e-06 -6.98914e-12 0)
(-3.94799e-06 3.67513e-12 0)
(-3.94807e-06 -2.48491e-12 0)
(-3.94802e-06 1.56254e-12 0)
(-3.94804e-06 -1.39499e-12 0)
(-3.94805e-06 1.3966e-12 0)
(-3.94802e-06 -1.7451e-12 0)
(-3.94808e-06 2.89996e-12 0)
(-3.94798e-06 -3.65019e-12 0)
(-3.94814e-06 1.00941e-11 0)
(-3.94787e-06 7.30036e-14 0)
(-3.94831e-06 8.26737e-11 0)
(-3.94749e-06 1.63263e-10 0)
(-3.94856e-06 9.30626e-10 0)
(-3.94605e-06 8.39934e-10 0)
(-4.27669e-06 -6.45048e-10 0)
(-4.27994e-06 -6.59747e-10 0)
(-4.27914e-06 -1.0637e-10 0)
(-4.28e-06 -4.55227e-11 0)
(-4.27961e-06 4.43649e-12 0)
(-4.27987e-06 -4.50845e-12 0)
(-4.27973e-06 2.85177e-12 0)
(-4.27981e-06 -1.84615e-12 0)
(-4.27977e-06 1.12601e-12 0)
(-4.27979e-06 -1.05505e-12 0)
(-4.27979e-06 1.04054e-12 0)
(-4.27976e-06 -1.27816e-12 0)
(-4.27982e-06 2.22536e-12 0)
(-4.27972e-06 -2.61336e-12 0)
(-4.27989e-06 7.82766e-12 0)
(-4.2796e-06 7.05409e-13 0)
(-4.28004e-06 6.54308e-11 0)
(-4.27911e-06 1.31081e-10 0)
(-4.28006e-06 7.36537e-10 0)
(-4.27662e-06 6.37869e-10 0)
(-4.50185e-06 -3.71641e-10 0)
(-4.50571e-06 -3.75348e-10 0)
(-4.50501e-06 -4.87367e-11 0)
(-4.50594e-06 -1.83383e-11 0)
(-4.50555e-06 6.14987e-12 0)
(-4.50582e-06 -1.50341e-12 0)
(-4.50567e-06 1.96677e-12 0)
(-4.50576e-06 -1.12122e-12 0)
(-4.50571e-06 6.43908e-13 0)
(-4.50573e-06 -6.719e-13 0)
(-4.50573e-06 6.41504e-13 0)
(-4.50571e-06 -7.59883e-13 0)
(-4.50576e-06 1.44775e-12 0)
(-4.50566e-06 -1.52503e-12 0)
(-4.50583e-06 4.90139e-12 0)
(-4.50554e-06 5.82613e-15 0)
(-4.50598e-06 3.92836e-11 0)
(-4.50497e-06 7.61136e-11 0)
(-4.50582e-06 4.5022e-10 0)
(-4.50171e-06 3.55125e-10 0)
(-4.6159e-06 -5.10708e-11 0)
(-4.62006e-06 -3.75173e-11 0)
(-4.6194e-06 2.22484e-11 0)
(-4.62036e-06 1.36493e-11 0)
(-4.61997e-06 8.49402e-12 0)
(-4.62024e-06 1.76746e-12 0)
(-4.62009e-06 1.04106e-12 0)
(-4.62018e-06 -3.49493e-13 0)
(-4.62013e-06 1.38767e-13 0)
(-4.62015e-06 -2.63869e-13 0)
(-4.62016e-06 2.18579e-13 0)
(-4.62013e-06 -2.1488e-13 0)
(-4.62019e-06 6.07426e-13 0)
(-4.62009e-06 -4.21011e-13 0)
(-4.62026e-06 1.55673e-12 0)
(-4.61995e-06 -1.59674e-12 0)
(-4.6204e-06 7.41715e-12 0)
(-4.61935e-06 6.50946e-12 0)
(-4.62015e-06 1.05996e-10 0)
(-4.61571e-06 2.27075e-11 0)
(-4.61598e-06 2.81951e-10 0)
(-4.62009e-06 3.14204e-10 0)
(-4.61942e-06 9.60901e-11 0)
(-4.62037e-06 4.6371e-11 0)
(-4.61998e-06 1.07496e-11 0)
(-4.62025e-06 5.01112e-12 0)
(-4.62009e-06 7.88488e-14 0)
(-4.62018e-06 4.33212e-13 0)
(-4.62013e-06 -3.71073e-13 0)
(-4.62015e-06 1.53519e-13 0)
(-4.62016e-06 -2.1211e-13 0)
(-4.62013e-06 3.36801e-13 0)
(-4.62019e-06 -2.58119e-13 0)
(-4.62009e-06 6.84376e-13 0)
(-4.62026e-06 -1.91935e-12 0)
(-4.61995e-06 -3.43191e-12 0)
(-4.6204e-06 -2.61239e-11 0)
(-4.61936e-06 -6.72686e-11 0)
(-4.62016e-06 -2.55929e-10 0)
(-4.61574e-06 -3.23895e-10 0)
(-4.50209e-06 5.91685e-10 0)
(-4.5058e-06 6.38857e-10 0)
(-4.50506e-06 1.61699e-10 0)
(-4.50596e-06 7.55648e-11 0)
(-4.50556e-06 1.21531e-11 0)
(-4.50582e-06 7.934e-12 0)
(-4.50567e-06 -9.18194e-13 0)
(-4.50576e-06 1.19301e-12 0)
(-4.50571e-06 -8.68658e-13 0)
(-4.50573e-06 5.65643e-13 0)
(-4.50573e-06 -6.35475e-13 0)
(-4.50571e-06 8.7674e-13 0)
(-4.50576e-06 -1.11197e-12 0)
(-4.50566e-06 1.7839e-12 0)
(-4.50583e-06 -5.22597e-12 0)
(-4.50554e-06 -4.75618e-12 0)
(-4.50599e-06 -5.70319e-11 0)
(-4.50499e-06 -1.34054e-10 0)
(-4.50586e-06 -5.93573e-10 0)
(-4.50182e-06 -6.47836e-10 0)
(-4.27707e-06 8.44378e-10 0)
(-4.28008e-06 8.98081e-10 0)
(-4.27922e-06 2.09038e-10 0)
(-4.28003e-06 9.74048e-11 0)
(-4.27962e-06 1.20757e-11 0)
(-4.27988e-06 1.02787e-11 0)
(-4.27973e-06 -1.93617e-12 0)
(-4.27981e-06 1.89654e-12 0)
(-4.27977e-06 -1.33573e-12 0)
(-4.27979e-06 9.56772e-13 0)
(-4.27979e-06 -1.03532e-12 0)
(-4.27976e-06 1.38525e-12 0)
(-4.27982e-06 -1.91601e-12 0)
(-4.27972e-06 2.86226e-12 0)
(-4.27989e-06 -8.0835e-12 0)
(-4.2796e-06 -4.93171e-12 0)
(-4.28005e-06 -8.13636e-11 0)
(-4.27914e-06 -1.83637e-10 0)
(-4.28013e-06 -8.67261e-10 0)
(-4.27679e-06 -9.1399e-10 0)
(-3.94655e-06 1.01129e-09 0)
(-3.94861e-06 1.06008e-09 0)
(-3.9476e-06 2.30686e-10 0)
(-3.9483e-06 1.09084e-10 0)
(-3.94789e-06 1.01844e-11 0)
(-3.94813e-06 1.18546e-11 0)
(-3.94799e-06 -2.93617e-12 0)
(-3.94807e-06 2.50873e-12 0)
(-3.94802e-06 -1.74997e-12 0)
(-3.94804e-06 1.30824e-12 0)
(-3.94805e-06 -1.39245e-12 0)
(-3.94802e-06 1.8384e-12 0)
(-3.94808e-06 -2.62856e-12 0)
(-3.94798e-06 3.88213e-12 0)
(-3.94814e-06 -1.02637e-11 0)
(-3.94787e-06 -3.59035e-12 0)
(-3.94832e-06 -9.61259e-11 0)
(-3.94751e-06 -2.08351e-10 0)
(-3.94865e-06 -1.0437e-09 0)
(-3.94627e-06 -1.09207e-09 0)
(-3.5188e-06 1.07174e-09 0)
(-3.51976e-06 1.1035e-09 0)
(-3.5186e-06 2.23198e-10 0)
(-3.51918e-06 1.09276e-10 0)
(-3.51877e-06 6.5627e-12 0)
(-3.519e-06 1.25551e-11 0)
(-3.51886e-06 -3.84439e-12 0)
(-3.51894e-06 2.99008e-12 0)
(-3.5189e-06 -2.08264e-12 0)
(-3.51891e-06 1.59625e-12 0)
(-3.51892e-06 -1.68252e-12 0)
(-3.51889e-06 2.20519e-12 0)
(-3.51894e-06 -3.20146e-12 0)
(-3.51885e-06 4.77288e-12 0)
(-3.51901e-06 -1.16077e-11 0)
(-3.51875e-06 -7.58802e-13 0)
(-3.5192e-06 -9.97442e-11 0)
(-3.51852e-06 -2.04455e-10 0)
(-3.51979e-06 -1.09999e-09 0)
(-3.51853e-06 -1.15975e-09 0)
(-3.0045e-06 1.01605e-09 0)
(-3.00433e-06 1.02113e-09 0)
(-3.00309e-06 1.88114e-10 0)
(-3.00354e-06 9.83967e-11 0)
(-3.00315e-06 1.77656e-12 0)
(-3.00335e-06 1.23489e-11 0)
(-3.00322e-06 -4.54422e-12 0)
(-3.0033e-06 3.29029e-12 0)
(-3.00326e-06 -2.29457e-12 0)
(-3.00327e-06 1.78872e-12 0)
(-3.00328e-06 -1.87287e-12 0)
(-3.00325e-06 2.4433e-12 0)
(-3.0033e-06 -3.57368e-12 0)
(-3.00322e-06 5.42008e-12 0)
(-3.00336e-06 -1.20191e-11 0)
(-3.00313e-06 3.06662e-12 0)
(-3.00355e-06 -9.23279e-11 0)
(-3.003e-06 -1.73184e-10 0)
(-3.00436e-06 -1.02748e-09 0)
(-3.00427e-06 -1.10579e-09 0)
(-2.41651e-06 8.48579e-10 0)
(-2.41536e-06 8.23858e-10 0)
(-2.4141e-06 1.32684e-10 0)
(-2.41444e-06 7.85344e-11 0)
(-2.41408e-06 -3.08081e-12 0)
(-2.41426e-06 1.12174e-11 0)
(-2.41415e-06 -4.85221e-12 0)
(-2.41421e-06 3.32805e-12 0)
(-2.41418e-06 -2.32396e-12 0)
(-2.41419e-06 1.83453e-12 0)
(-2.4142e-06 -1.91141e-12 0)
(-2.41418e-06 2.48552e-12 0)
(-2.41422e-06 -3.64977e-12 0)
(-2.41414e-06 5.63624e-12 0)
(-2.41427e-06 -1.13993e-11 0)
(-2.41406e-06 6.85684e-12 0)
(-2.41445e-06 -7.56063e-11 0)
(-2.41403e-06 -1.21532e-10 0)
(-2.41538e-06 -8.35858e-10 0)
(-2.41633e-06 -9.33188e-10 0)
(-1.7695e-06 5.92682e-10 0)
(-1.7677e-06 5.4684e-10 0)
(-1.76657e-06 7.0495e-11 0)
(-1.76681e-06 5.3084e-11 0)
(-1.76651e-06 -6.34578e-12 0)
(-1.76666e-06 9.02904e-12 0)
(-1.76657e-06 -4.47369e-12 0)
(-1.76662e-06 2.95302e-12 0)
(-1.76659e-06 -2.06255e-12 0)
(-1.7666e-06 1.64364e-12 0)
(-1.7666e-06 -1.70615e-12 0)
(-1.76659e-06 2.21374e-12 0)
(-1.76662e-06 -3.25874e-12 0)
(-1.76656e-06 5.10785e-12 0)
(-1.76667e-06 -9.51539e-12 0)
(-1.7665e-06 8.97975e-12 0)
(-1.76682e-06 -5.25367e-11 0)
(-1.76651e-06 -6.29892e-11 0)
(-1.76773e-06 -5.59596e-10 0)
(-1.76939e-06 -6.64335e-10 0)
(-1.0796e-06 3.01921e-10 0)
(-1.07775e-06 2.57959e-10 0)
(-1.07691e-06 2.05016e-11 0)
(-1.07706e-06 2.67209e-11 0)
(-1.07685e-06 -6.20504e-12 0)
(-1.07696e-06 5.64096e-12 0)
(-1.07689e-06 -3.11027e-12 0)
(-1.07693e-06 2.00187e-12 0)
(-1.07691e-06 -1.39693e-12 0)
(-1.07692e-06 1.12115e-12 0)
(-1.07692e-06 -1.16052e-12 0)
(-1.07691e-06 1.50345e-12 0)
(-1.07693e-06 -2.21746e-12 0)
(-1.07689e-06 3.51237e-12 0)
(-1.07696e-06 -6.12312e-12 0)
(-1.07684e-06 7.64712e-12 0)
(-1.07707e-06 -2.73348e-11 0)
(-1.07686e-06 -1.65095e-11 0)
(-1.07777e-06 -2.6688e-10 0)
(-1.07955e-06 -3.52058e-10 0)
(-3.63994e-07 5.76028e-11 0)
(-3.62956e-07 3.26847e-11 0)
(-3.62608e-07 -5.23135e-12 0)
(-3.62673e-07 6.68438e-12 0)
(-3.62587e-07 -3.39301e-12 0)
(-3.62632e-07 2.17877e-12 0)
(-3.62604e-07 -1.33076e-12 0)
(-3.6262e-07 8.44944e-13 0)
(-3.62611e-07 -5.8607e-13 0)
(-3.62615e-07 4.74861e-13 0)
(-3.62616e-07 -4.89934e-13 0)
(-3.62611e-07 6.32953e-13 0)
(-3.62621e-07 -9.37651e-13 0)
(-3.62602e-07 1.49113e-12 0)
(-3.62634e-07 -2.4404e-12 0)
(-3.62583e-07 3.86429e-12 0)
(-3.62678e-07 -7.35956e-12 0)
(-3.62591e-07 6.57468e-12 0)
(-3.6297e-07 -3.54547e-11 0)
(-3.63987e-07 -7.64427e-11 0)
)
;

boundaryField
{
    inlet
    {
        type            calculated;
        value           nonuniform List<vector> 
20
(
(-3.63903e-07 -5.6645e-11 0)
(-1.07934e-06 -2.89398e-10 0)
(-1.76909e-06 -5.58102e-10 0)
(-2.416e-06 -7.83665e-10 0)
(-3.00395e-06 -9.15996e-10 0)
(-3.51825e-06 -9.35296e-10 0)
(-3.94607e-06 -8.407e-10 0)
(-4.27669e-06 -6.45048e-10 0)
(-4.50185e-06 -3.71641e-10 0)
(-4.6159e-06 -5.10708e-11 0)
(-4.61598e-06 2.81951e-10 0)
(-4.50209e-06 5.91685e-10 0)
(-4.27707e-06 8.44378e-10 0)
(-3.94655e-06 1.01129e-09 0)
(-3.5188e-06 1.07174e-09 0)
(-3.0045e-06 1.01605e-09 0)
(-2.41651e-06 8.48579e-10 0)
(-1.7695e-06 5.92682e-10 0)
(-1.0796e-06 3.01921e-10 0)
(-3.63994e-07 5.76028e-11 0)
)
;
    }
    outlet
    {
        type            calculated;
        value           nonuniform List<vector> 
20
(
(-3.63939e-07 5.59691e-11 0)
(-1.07942e-06 2.88773e-10 0)
(-1.7692e-06 5.58785e-10 0)
(-2.4161e-06 7.8619e-10 0)
(-3.00402e-06 9.19554e-10 0)
(-3.51829e-06 9.37994e-10 0)
(-3.94605e-06 8.39934e-10 0)
(-4.27662e-06 6.37869e-10 0)
(-4.50171e-06 3.55125e-10 0)
(-4.61571e-06 2.27075e-11 0)
(-4.61574e-06 -3.23895e-10 0)
(-4.50182e-06 -6.47836e-10 0)
(-4.27679e-06 -9.1399e-10 0)
(-3.94627e-06 -1.09207e-09 0)
(-3.51853e-06 -1.15975e-09 0)
(-3.00427e-06 -1.10579e-09 0)
(-2.41633e-06 -9.33188e-10 0)
(-1.76939e-06 -6.64335e-10 0)
(-1.07955e-06 -3.52058e-10 0)
(-3.63987e-07 -7.64427e-11 0)
)
;
    }
    walls
    {
        type            calculated;
        value           uniform (0 0 0);
    }
    movingWall
    {
        type            calculated;
        value           uniform (0 0 0);
    }
    frontAndBack
    {
        type            empty;
    }
}


// ************************************************************************* //
