/*--------------------------------*- C++ -*----------------------------------*\
| =========                 |                                                 |
| \\      /  F ield         | OpenFOAM: The Open Source CFD Toolbox           |
|  \\    /   O peration     | Version:  2412                                  |
|   \\  /    A nd           | Website:  www.openfoam.com                      |
|    \\/     M anipulation  |                                                 |
\*---------------------------------------------------------------------------*/
FoamFile
{
    version     2.0;
    format      ascii;
    arch        "LSB;label=32;scalar=64";
    class       volVectorField;
    location    "0";
    object      U;
}
// * * * * * * * * * * * * * * * * * * * * * * * * * * * * * * * * * * * * * //

dimensions      [0 1 -1 0 0 0 0];

internalField   uniform (0 0 0);

boundaryField
{
    innerWall
    {
        type            fixedValue;
        value           nonuniform List<vector> 
160
(
(-0.999615 0.0196299 0)
(-0.998073 0.0588595 0)
(-0.994993 0.0979982 0)
(-0.990378 0.136986 0)
(-0.984237 0.175762 0)
(-0.976578 0.214268 0)
(-0.967413 0.252443 0)
(-0.956756 0.290229 0)
(-0.944624 0.327567 0)
(-0.931035 0.3644 0)
(-0.916011 0.400672 0)
(-0.899575 0.436325 0)
(-0.881751 0.471306 0)
(-0.862568 0.50556 0)
(-0.842055 0.539034 0)
(-0.820243 0.571678 0)
(-0.797167 0.60344 0)
(-0.772861 0.634271 0)
(-0.747364 0.664124 0)
(-0.720715 0.692954 0)
(-0.692954 0.720715 0)
(-0.664124 0.747364 0)
(-0.634271 0.772861 0)
(-0.60344 0.797167 0)
(-0.571678 0.820243 0)
(-0.539034 0.842055 0)
(-0.50556 0.862568 0)
(-0.471306 0.881751 0)
(-0.436325 0.899575 0)
(-0.400672 0.916011 0)
(-0.3644 0.931035 0)
(-0.327567 0.944624 0)
(-0.290229 0.956756 0)
(-0.252443 0.967413 0)
(-0.214268 0.976578 0)
(-0.175762 0.984237 0)
(-0.136986 0.990378 0)
(-0.0979982 0.994993 0)
(-0.0588595 0.998073 0)
(-0.0196299 0.999615 0)
(-0.0196299 -0.999615 0)
(-0.0588595 -0.998073 0)
(-0.0979982 -0.994993 0)
(-0.136986 -0.990378 0)
(-0.175762 -0.984237 0)
(-0.214268 -0.976578 0)
(-0.252443 -0.967413 0)
(-0.290229 -0.956756 0)
(-0.327567 -0.944624 0)
(-0.3644 -0.931035 0)
(-0.400672 -0.916011 0)
(-0.436325 -0.899575 0)
(-0.471306 -0.881751 0)
(-0.50556 -0.862568 0)
(-0.539034 -0.842055 0)
(-0.571678 -0.820243 0)
(-0.60344 -0.797167 0)
(-0.634271 -0.772861 0)
(-0.664124 -0.747364 0)
(-0.692954 -0.720715 0)
(-0.720715 -0.692954 0)
(-0.747364 -0.664124 0)
(-0.772861 -0.634271 0)
(-0.797167 -0.60344 0)
(-0.820243 -0.571678 0)
(-0.842055 -0.539034 0)
(-0.862568 -0.50556 0)
(-0.881751 -0.471306 0)
(-0.899575 -0.436325 0)
(-0.916011 -0.400672 0)
(-0.931035 -0.3644 0)
(-0.944624 -0.327567 0)
(-0.956756 -0.290229 0)
(-0.967413 -0.252443 0)
(-0.976578 -0.214268 0)
(-0.984237 -0.175762 0)
(-0.990378 -0.136986 0)
(-0.994993 -0.0979982 0)
(-0.998073 -0.0588595 0)
(-0.999615 -0.0196299 0)
(0.999615 -0.0196299 0)
(0.998073 -0.0588595 0)
(0.994993 -0.0979982 0)
(0.990378 -0.136986 0)
(0.984237 -0.175762 0)
(0.976578 -0.214268 0)
(0.967413 -0.252443 0)
(0.956756 -0.290229 0)
(0.944624 -0.327567 0)
(0.931035 -0.3644 0)
(0.916011 -0.400672 0)
(0.899575 -0.436325 0)
(0.881751 -0.471306 0)
(0.862568 -0.50556 0)
(0.842055 -0.539034 0)
(0.820243 -0.571678 0)
(0.797167 -0.60344 0)
(0.772861 -0.634271 0)
(0.747364 -0.664124 0)
(0.720715 -0.692954 0)
(0.692954 -0.720715 0)
(0.664124 -0.747364 0)
(0.634271 -0.772861 0)
(0.60344 -0.797167 0)
(0.571678 -0.820243 0)
(0.539034 -0.842055 0)
(0.50556 -0.862568 0)
(0.471306 -0.881751 0)
(0.436325 -0.899575 0)
(0.400672 -0.916011 0)
(0.3644 -0.931035 0)
(0.327567 -0.944624 0)
(0.290229 -0.956756 0)
(0.252443 -0.967413 0)
(0.214268 -0.976578 0)
(0.175762 -0.984237 0)
(0.136986 -0.990378 0)
(0.0979982 -0.994993 0)
(0.0588595 -0.998073 0)
(0.0196299 -0.999615 0)
(0.0196299 0.999615 -0)
(0.0588595 0.998073 -0)
(0.0979982 0.994993 -0)
(0.136986 0.990378 -0)
(0.175762 0.984237 -0)
(0.214268 0.976578 -0)
(0.252443 0.967413 -0)
(0.290229 0.956756 -0)
(0.327567 0.944624 -0)
(0.3644 0.931035 -0)
(0.400672 0.916011 -0)
(0.436325 0.899575 -0)
(0.471306 0.881751 -0)
(0.50556 0.862568 -0)
(0.539034 0.842055 -0)
(0.571678 0.820243 -0)
(0.60344 0.797167 -0)
(0.634271 0.772861 -0)
(0.664124 0.747364 -0)
(0.692954 0.720715 -0)
(0.720715 0.692954 -0)
(0.747364 0.664124 -0)
(0.772861 0.634271 -0)
(0.797167 0.60344 -0)
(0.820243 0.571678 -0)
(0.842055 0.539034 -0)
(0.862568 0.50556 -0)
(0.881751 0.471306 -0)
(0.899575 0.436325 -0)
(0.916011 0.400672 -0)
(0.931035 0.3644 -0)
(0.944624 0.327567 -0)
(0.956756 0.290229 -0)
(0.967413 0.252443 -0)
(0.976578 0.214268 -0)
(0.984237 0.175762 -0)
(0.990378 0.136986 -0)
(0.994993 0.0979982 -0)
(0.998073 0.0588595 -0)
(0.999615 0.0196299 -0)
)
;
    }
    outerWall
    {
        type            fixedValue;
        value           uniform (0 0 0);
    }
    frontAndBack
    {
        type            empty;
    }
}


// ************************************************************************* //
