/*--------------------------------*- C++ -*----------------------------------*\
| =========                 |                                                 |
| \\      /  F ield         | OpenFOAM: The Open Source CFD Toolbox           |
|  \\    /   O peration     | Version:  2312                                  |
|   \\  /    A nd           | Website:  www.openfoam.com                      |
|    \\/     M anipulation  |                                                 |
\*---------------------------------------------------------------------------*/
FoamFile
{
    version     2.0;
    format      ascii;
    arch        "LSB;label=32;scalar=64";
    class       volScalarField;
    location    "960";
    object      p;
}
// * * * * * * * * * * * * * * * * * * * * * * * * * * * * * * * * * * * * * //

dimensions      [0 2 -2 0 0 0 0];

internalField   nonuniform List<scalar> 
400
(
-1.57688e-11
-1.51666e-06
-3.59797e-06
-5.37319e-06
-7.35802e-06
-9.21446e-06
-1.1149e-05
-1.30354e-05
-1.49525e-05
-1.68484e-05
-1.87615e-05
-2.06568e-05
-2.25751e-05
-2.44594e-05
-2.63975e-05
-2.82483e-05
-3.02425e-05
-3.20028e-05
-3.41047e-05
-3.55836e-05
-1.16403e-08
-1.52714e-06
-3.60109e-06
-5.37432e-06
-7.35806e-06
-9.21457e-06
-1.1149e-05
-1.30354e-05
-1.49525e-05
-1.68484e-05
-1.87614e-05
-2.06569e-05
-2.2575e-05
-2.44594e-05
-2.63974e-05
-2.82482e-05
-3.02412e-05
-3.19995e-05
-3.40935e-05
-3.55717e-05
-1.114e-08
-1.52872e-06
-3.60545e-06
-5.37407e-06
-7.35879e-06
-9.21425e-06
-1.11492e-05
-1.30353e-05
-1.49526e-05
-1.68483e-05
-1.87615e-05
-2.06568e-05
-2.25752e-05
-2.44592e-05
-2.63977e-05
-2.82474e-05
-3.02414e-05
-3.19947e-05
-3.40917e-05
-3.55719e-05
-8.49933e-10
-1.51792e-06
-3.60842e-06
-5.37318e-06
-7.35952e-06
-9.21388e-06
-1.11495e-05
-1.30352e-05
-1.49527e-05
-1.68482e-05
-1.87616e-05
-2.06566e-05
-2.25753e-05
-2.44589e-05
-2.63981e-05
-2.82465e-05
-3.02423e-05
-3.19914e-05
-3.41029e-05
-3.55819e-05
1.36635e-08
-1.49981e-06
-3.61002e-06
-5.37199e-06
-7.36007e-06
-9.21357e-06
-1.11496e-05
-1.3035e-05
-1.49527e-05
-1.68482e-05
-1.87617e-05
-2.06566e-05
-2.25755e-05
-2.44587e-05
-2.63985e-05
-2.82459e-05
-3.02436e-05
-3.19895e-05
-3.41218e-05
-3.55963e-05
2.9163e-08
-1.47894e-06
-3.6107e-06
-5.37064e-06
-7.36049e-06
-9.21329e-06
-1.11498e-05
-1.30349e-05
-1.49528e-05
-1.68481e-05
-1.87617e-05
-2.06565e-05
-2.25756e-05
-2.44585e-05
-2.63988e-05
-2.82454e-05
-3.0245e-05
-3.19887e-05
-3.41437e-05
-3.56117e-05
4.36461e-08
-1.45861e-06
-3.61084e-06
-5.3693e-06
-7.36079e-06
-9.21306e-06
-1.11499e-05
-1.30349e-05
-1.49529e-05
-1.68481e-05
-1.87618e-05
-2.06564e-05
-2.25757e-05
-2.44584e-05
-2.6399e-05
-2.8245e-05
-3.02465e-05
-3.19884e-05
-3.41653e-05
-3.56261e-05
5.5618e-08
-1.44141e-06
-3.61069e-06
-5.36814e-06
-7.36099e-06
-9.21287e-06
-1.115e-05
-1.30348e-05
-1.49529e-05
-1.6848e-05
-1.87618e-05
-2.06564e-05
-2.25757e-05
-2.44583e-05
-2.63992e-05
-2.82448e-05
-3.02478e-05
-3.19885e-05
-3.41838e-05
-3.56379e-05
6.3987e-08
-1.42932e-06
-3.61047e-06
-5.36731e-06
-7.36111e-06
-9.21275e-06
-1.11501e-05
-1.30348e-05
-1.49529e-05
-1.6848e-05
-1.87618e-05
-2.06563e-05
-2.25758e-05
-2.44582e-05
-2.63994e-05
-2.82446e-05
-3.02488e-05
-3.19886e-05
-3.41973e-05
-3.56461e-05
6.80672e-08
-1.42364e-06
-3.61034e-06
-5.36693e-06
-7.36116e-06
-9.21268e-06
-1.11501e-05
-1.30347e-05
-1.49529e-05
-1.6848e-05
-1.87619e-05
-2.06563e-05
-2.25758e-05
-2.44582e-05
-2.63995e-05
-2.82445e-05
-3.02494e-05
-3.19888e-05
-3.42043e-05
-3.56499e-05
6.75521e-08
-1.42499e-06
-3.61037e-06
-5.36704e-06
-7.36113e-06
-9.21268e-06
-1.11501e-05
-1.30347e-05
-1.49529e-05
-1.6848e-05
-1.87619e-05
-2.06563e-05
-2.25758e-05
-2.44582e-05
-2.63995e-05
-2.82446e-05
-3.02494e-05
-3.19887e-05
-3.42041e-05
-3.56489e-05
6.24972e-08
-1.43326e-06
-3.61054e-06
-5.36763e-06
-7.36104e-06
-9.21275e-06
-1.115e-05
-1.30348e-05
-1.49529e-05
-1.6848e-05
-1.87618e-05
-2.06563e-05
-2.25758e-05
-2.44582e-05
-2.63994e-05
-2.82446e-05
-3.02489e-05
-3.19885e-05
-3.41967e-05
-3.56433e-05
5.33133e-08
-1.44763e-06
-3.61075e-06
-5.36862e-06
-7.36086e-06
-9.21287e-06
-1.115e-05
-1.30348e-05
-1.49529e-05
-1.6848e-05
-1.87618e-05
-2.06564e-05
-2.25758e-05
-2.44583e-05
-2.63993e-05
-2.82448e-05
-3.0248e-05
-3.19883e-05
-3.4183e-05
-3.56333e-05
4.07844e-08
-1.46661e-06
-3.6108e-06
-5.36988e-06
-7.36058e-06
-9.21305e-06
-1.11499e-05
-1.30349e-05
-1.49528e-05
-1.68481e-05
-1.87618e-05
-2.06564e-05
-2.25757e-05
-2.44584e-05
-2.63991e-05
-2.82451e-05
-3.02467e-05
-3.19882e-05
-3.41642e-05
-3.56198e-05
2.60798e-08
-1.48808e-06
-3.61046e-06
-5.37124e-06
-7.36019e-06
-9.21326e-06
-1.11497e-05
-1.30349e-05
-1.49528e-05
-1.68481e-05
-1.87617e-05
-2.06565e-05
-2.25756e-05
-2.44585e-05
-2.63988e-05
-2.82455e-05
-3.02453e-05
-3.19885e-05
-3.41427e-05
-3.56038e-05
1.07506e-08
-1.50936e-06
-3.60944e-06
-5.3725e-06
-7.35968e-06
-9.21351e-06
-1.11496e-05
-1.3035e-05
-1.49527e-05
-1.68482e-05
-1.87617e-05
-2.06566e-05
-2.25755e-05
-2.44587e-05
-2.63986e-05
-2.8246e-05
-3.02439e-05
-3.19895e-05
-3.41211e-05
-3.55871e-05
-3.17548e-09
-1.52713e-06
-3.60738e-06
-5.37351e-06
-7.35901e-06
-9.21379e-06
-1.11493e-05
-1.30351e-05
-1.49526e-05
-1.68482e-05
-1.87616e-05
-2.06566e-05
-2.25754e-05
-2.44589e-05
-2.63982e-05
-2.82467e-05
-3.02428e-05
-3.19915e-05
-3.41028e-05
-3.55717e-05
-1.2444e-08
-1.53685e-06
-3.60379e-06
-5.37411e-06
-7.35816e-06
-9.21412e-06
-1.11491e-05
-1.30353e-05
-1.49525e-05
-1.68483e-05
-1.87615e-05
-2.06568e-05
-2.25752e-05
-2.44592e-05
-2.63978e-05
-2.82476e-05
-3.02419e-05
-3.19951e-05
-3.40925e-05
-3.55609e-05
-1.15004e-08
-1.53354e-06
-3.59866e-06
-5.37396e-06
-7.35728e-06
-9.21439e-06
-1.11489e-05
-1.30354e-05
-1.49524e-05
-1.68484e-05
-1.87614e-05
-2.06569e-05
-2.2575e-05
-2.44594e-05
-2.63975e-05
-2.82485e-05
-3.02418e-05
-3.20002e-05
-3.40953e-05
-3.55602e-05
1.63587e-09
-1.52128e-06
-3.59473e-06
-5.37245e-06
-7.35712e-06
-9.21424e-06
-1.11489e-05
-1.30354e-05
-1.49525e-05
-1.68484e-05
-1.87615e-05
-2.06568e-05
-2.25751e-05
-2.44594e-05
-2.63976e-05
-2.82485e-05
-3.02433e-05
-3.20039e-05
-3.41077e-05
-3.55716e-05
)
;

boundaryField
{
    inlet
    {
        type            zeroGradient;
    }
    outlet
    {
        type            zeroGradient;
    }
    walls
    {
        type            zeroGradient;
    }
    movingWall
    {
        type            zeroGradient;
    }
    frontAndBack
    {
        type            empty;
    }
}


// ************************************************************************* //
