/*--------------------------------*- C++ -*----------------------------------*\
| =========                 |                                                 |
| \\      /  F ield         | OpenFOAM: The Open Source CFD Toolbox           |
|  \\    /   O peration     | Version:  2312                                  |
|   \\  /    A nd           | Website:  www.openfoam.com                      |
|    \\/     M anipulation  |                                                 |
\*---------------------------------------------------------------------------*/
FoamFile
{
    version     2.0;
    format      ascii;
    arch        "LSB;label=32;scalar=64";
    class       surfaceScalarField;
    location    "960";
    object      phi;
}
// * * * * * * * * * * * * * * * * * * * * * * * * * * * * * * * * * * * * * //

dimensions      [0 3 -1 0 0 0 0];

oriented        oriented;

internalField   nonuniform List<scalar> 
760
(
0.000124997
-5.68282e-12
0.000124997
-4.5451e-12
0.000124997
-1.15499e-13
0.000124997
-4.85847e-13
0.000124997
1.7305e-13
0.000124997
-1.224e-13
0.000124997
7.23438e-14
0.000124997
-4.6544e-14
0.000124997
3.18026e-14
0.000124997
-2.60757e-14
0.000124997
2.67888e-14
0.000124997
-3.44841e-14
0.000124997
5.15967e-14
0.000124997
-8.05345e-14
0.000124997
1.39349e-13
0.000124997
-1.89818e-13
0.000124997
5.46431e-13
0.000124997
9.77134e-14
0.000124997
4.78256e-12
5.65889e-12
0.000374992
-1.49726e-11
0.000374992
-1.31636e-11
0.000374992
-1.09108e-12
0.000374992
-1.20497e-12
0.000374992
2.99608e-13
0.000374992
-2.46459e-13
0.000374992
1.40113e-13
0.000374992
-9.11968e-14
0.000374992
6.18e-14
0.000374992
-5.09943e-14
0.000374992
5.22858e-14
0.000374992
-6.72024e-14
0.000374992
1.01405e-13
0.000374992
-1.552e-13
0.000374992
2.85186e-13
0.000374992
-3.20491e-13
0.000374992
1.36463e-12
0.000374992
1.12e-12
0.000374992
1.38472e-11
1.49696e-11
0.000624988
-2.37285e-11
0.000624988
-2.21957e-11
0.000624988
-2.63247e-12
0.000624988
-1.866e-12
0.000624988
3.07191e-13
0.000624988
-3.13338e-13
0.000624988
1.69827e-13
0.000624988
-1.12237e-13
0.000624988
7.51783e-14
0.000624988
-6.26307e-14
0.000624988
6.40338e-14
0.000624988
-8.20518e-14
0.000624988
1.25409e-13
0.000624988
-1.86446e-13
0.000624988
3.7116e-13
0.000624988
-3.1066e-13
0.000624988
2.13535e-12
0.000624988
2.77983e-12
0.000624988
2.33952e-11
2.37854e-11
0.000874983
-2.99733e-11
0.000874983
-2.91411e-11
0.000874983
-4.11695e-12
0.000874983
-2.357e-12
0.000874983
2.54974e-13
0.000874983
-3.36762e-13
0.000874983
1.74562e-13
0.000874983
-1.17202e-13
0.000874983
7.73901e-14
0.000874983
-6.52931e-14
0.000874983
6.65028e-14
0.000874983
-8.48482e-14
0.000874983
1.319e-13
0.000874983
-1.88858e-13
0.000874983
4.11949e-13
0.000874983
-2.26027e-13
0.000874983
2.74036e-12
0.000874983
4.42467e-12
0.000874983
3.08507e-11
3.00818e-11
0.00112498
-3.26152e-11
0.00112498
-3.25144e-11
0.00112498
-5.06663e-12
0.00112498
-2.57029e-12
0.00112498
1.90398e-13
0.00112498
-3.23187e-13
0.00112498
1.63102e-13
0.00112498
-1.10801e-13
0.00112498
7.19344e-14
0.00112498
-6.17346e-14
0.00112498
6.25579e-14
0.00112498
-7.93101e-14
0.00112498
1.26004e-13
0.00112498
-1.72412e-13
0.00112498
4.13847e-13
0.00112498
-1.19947e-13
0.00112498
3.06366e-12
0.00112498
5.5508e-12
0.00112498
3.46654e-11
3.27264e-11
0.00137498
-3.12802e-11
0.00137498
-3.16823e-11
0.00137498
-5.18853e-12
0.00137498
-2.43658e-12
0.00137498
1.47749e-13
0.00137498
-2.7684e-13
0.00137498
1.41763e-13
0.00137498
-9.63258e-14
0.00137498
6.13093e-14
0.00137498
-5.38748e-14
0.00137498
5.41975e-14
0.00137498
-6.81196e-14
0.00137498
1.11249e-13
0.00137498
-1.44453e-13
0.00137498
3.80447e-13
0.00137498
-3.20395e-14
0.00137498
3.02751e-12
0.00137498
5.84376e-12
0.00137498
3.41589e-11
3.13152e-11
0.00162497
-2.61649e-11
0.00162497
-2.67143e-11
0.00162497
-4.384e-12
0.00162497
-1.9409e-12
0.00162497
1.45461e-13
0.00162497
-2.02336e-13
0.00162497
1.14786e-13
0.00162497
-7.61788e-14
0.00162497
4.72798e-14
0.00162497
-4.3095e-14
0.00162497
4.28656e-14
0.00162497
-5.31645e-14
0.00162497
9.0157e-14
0.00162497
-1.10122e-13
0.00162497
3.15442e-13
0.00162497
1.44365e-14
0.00162497
2.60922e-12
0.00162497
5.18779e-12
0.00162497
2.9369e-11
2.60261e-11
0.00187497
-1.79029e-11
0.00187497
-1.82339e-11
0.00187497
-2.7341e-12
0.00187497
-1.12538e-12
0.00187497
1.86002e-13
0.00187497
-1.05762e-13
0.00187497
8.4756e-14
0.00187497
-5.219e-14
0.00187497
3.11259e-14
0.00187497
-3.03747e-14
0.00187497
2.95814e-14
0.00187497
-3.5841e-14
0.00187497
6.46124e-14
0.00187497
-7.27549e-14
0.00187497
2.24043e-13
0.00187497
1.30408e-14
0.00187497
1.84477e-12
0.00187497
3.65167e-12
0.00187497
2.09042e-11
1.74868e-11
0.00212497
-7.44296e-12
0.00212497
-7.27322e-12
0.00212497
-4.67719e-13
0.00212497
-8.29753e-14
0.00212497
2.5768e-13
0.00212497
4.70159e-15
0.00212497
5.29205e-14
0.00212497
-2.58643e-14
0.00212497
1.37603e-14
0.00212497
-1.6462e-14
0.00212497
1.51287e-14
0.00212497
-1.71337e-14
0.00212497
3.61545e-14
0.00212497
-3.42042e-14
0.00212497
1.13669e-13
0.00212497
-2.77544e-14
0.00212497
8.22753e-13
0.00212497
1.45649e-12
0.00212497
9.79708e-12
6.65396e-12
0.00237497
4.06582e-12
0.00237497
4.87209e-12
0.00237497
2.08414e-12
0.00237497
1.057e-12
0.00237497
3.3896e-13
0.00237497
1.19395e-13
0.00237497
1.97403e-14
0.00237497
1.47836e-15
0.00237497
-4.08675e-15
0.00237497
-1.94279e-15
0.00237497
1.12813e-16
0.00237497
2.14746e-15
0.00237497
6.14829e-15
0.00237497
4.63181e-15
0.00237497
-6.40207e-15
0.00237497
-8.85768e-14
0.00237497
-3.29493e-13
0.00237497
-1.06997e-12
0.00237497
-2.64048e-12
-5.30244e-12
0.00262497
1.53837e-11
0.00262497
1.67853e-11
0.00262497
4.54129e-12
0.00262497
2.14775e-12
0.00262497
4.03644e-13
0.00262497
2.27935e-13
0.00262497
-1.47059e-14
0.00262497
2.86103e-14
0.00262497
-2.18078e-14
0.00262497
1.26438e-14
0.00262497
-1.49031e-14
0.00262497
2.13526e-14
0.00262497
-2.40959e-14
0.00262497
4.33988e-14
0.00262497
-1.25789e-13
0.00262497
-1.44494e-13
0.00262497
-1.46485e-12
0.00262497
-3.54679e-12
0.00262497
-1.49622e-11
-1.71096e-11
0.00287497
2.52882e-11
0.00287497
2.70707e-11
0.00287497
6.53178e-12
0.00287497
3.04689e-12
0.00287497
4.27252e-13
0.00287497
3.20667e-13
0.00287497
-5.01327e-14
0.00287497
5.43471e-14
0.00287497
-3.87689e-14
0.00287497
2.67756e-14
0.00287497
-2.93861e-14
0.00287497
3.97834e-14
0.00287497
-5.3257e-14
0.00287497
8.16864e-14
0.00287497
-2.34294e-13
0.00287497
-1.71165e-13
0.00287497
-2.43802e-12
0.00287497
-5.59758e-12
0.00287497
-2.57311e-11
-2.75012e-11
0.00312497
3.26795e-11
0.00312497
3.44933e-11
0.00312497
7.74802e-12
0.00312497
3.63751e-12
0.00312497
3.92761e-13
0.00312497
3.89652e-13
0.00312497
-8.56259e-14
0.00312497
7.74928e-14
0.00312497
-5.42752e-14
0.00312497
3.98336e-14
0.00312497
-4.26953e-14
0.00312497
5.67048e-14
0.00312497
-7.99357e-14
0.00312497
1.18588e-13
0.00312497
-3.22948e-13
0.00312497
-1.50843e-13
0.00312497
-3.12681e-12
0.00312497
-6.90741e-12
0.00312497
-3.36627e-11
-3.5326e-11
0.00337497
3.66874e-11
0.00337497
3.81178e-11
0.00337497
7.99885e-12
0.00337497
3.84673e-12
0.00337497
2.95883e-13
0.00337497
4.29655e-13
0.00337497
-1.19172e-13
0.00337497
9.67047e-14
0.00337497
-6.73962e-14
0.00337497
5.10789e-14
0.00337497
-5.40751e-14
0.00337497
7.11053e-14
0.00337497
-1.02526e-13
0.00337497
1.52166e-13
0.00337497
-3.84904e-13
0.00337497
-7.75766e-14
0.00337497
-3.45061e-12
0.00337497
-7.27559e-12
0.00337497
-3.77684e-11
-3.96579e-11
0.00362498
3.67804e-11
0.00362498
3.74459e-11
0.00362498
7.25191e-12
0.00362498
3.65818e-12
0.00362498
1.48244e-13
0.00362498
4.38063e-13
0.00362498
-1.47329e-13
0.00362498
1.10366e-13
0.00362498
-7.69211e-14
0.00362498
5.94733e-14
0.00362498
-6.24674e-14
0.00362498
8.16876e-14
0.00362498
-1.19054e-13
0.00362498
1.79069e-13
0.00362498
-4.15496e-13
0.00362498
3.91588e-14
0.00362498
-3.38327e-12
0.00362498
-6.65929e-12
0.00362498
-3.74969e-11
-3.99091e-11
0.00387498
3.28795e-11
0.00387498
3.25533e-11
0.00387498
5.66267e-12
0.00387498
3.11691e-12
0.00387498
-2.12282e-14
0.00387498
4.14293e-13
0.00387498
-1.64972e-13
0.00387498
1.16225e-13
0.00387498
-8.11105e-14
0.00387498
6.36321e-14
0.00387498
-6.646e-14
0.00387498
8.65535e-14
0.00387498
-1.26852e-13
0.00387498
1.9415e-13
0.00387498
-4.11569e-13
0.00387498
1.72907e-13
0.00387498
-2.95814e-12
0.00387498
-5.20392e-12
0.00387498
-3.2878e-11
-3.59484e-11
0.00412498
2.54818e-11
0.00412498
2.42248e-11
0.00412498
3.58414e-12
0.00412498
2.32398e-12
0.00412498
-1.67894e-13
0.00412498
3.57901e-13
0.00412498
-1.65063e-13
0.00412498
1.11128e-13
0.00412498
-7.76123e-14
0.00412498
6.1546e-14
0.00412498
-6.40082e-14
0.00412498
8.31468e-14
0.00412498
-1.22239e-13
0.00412498
1.90144e-13
0.00412498
-3.69817e-13
0.00412498
2.81126e-13
0.00412498
-2.2631e-12
0.00412498
-3.25475e-12
0.00412498
-2.46649e-11
-2.82304e-11
0.00437499
1.57968e-11
0.00437499
1.40909e-11
0.00437499
1.55312e-12
0.00437499
1.41833e-12
0.00437499
-2.3491e-13
0.00437499
2.65839e-13
0.00437499
-1.38424e-13
0.00437499
9.03409e-14
0.00437499
-6.305e-14
0.00437499
5.04273e-14
0.00437499
-5.22708e-14
0.00437499
6.77636e-14
0.00437499
-9.98631e-14
0.00437499
1.57257e-13
0.00437499
-2.83944e-13
0.00437499
3.08224e-13
0.00437499
-1.42274e-12
0.00437499
-1.34579e-12
0.00437499
-1.44795e-11
-1.79374e-11
0.00462499
5.89965e-12
0.00462499
4.77297e-12
0.00462499
2.44085e-13
0.00462499
5.40178e-13
0.00462499
-1.56233e-13
0.00462499
1.2673e-13
0.00462499
-7.20741e-14
0.00462499
4.61823e-14
0.00462499
-3.21766e-14
0.00462499
2.58911e-14
0.00462499
-2.67728e-14
0.00462499
3.46658e-14
0.00462499
-5.11899e-14
0.00462499
8.12066e-14
0.00462499
-1.38817e-13
0.00462499
1.87281e-13
0.00462499
-5.61092e-13
0.00462499
-1.5804e-13
0.00462499
-4.96693e-12
-7.13953e-12
0.004875
0.004875
0.004875
0.004875
0.004875
0.004875
0.004875
0.004875
0.004875
0.004875
0.004875
0.004875
0.004875
0.004875
0.004875
0.004875
0.004875
0.004875
0.004875
)
;

boundaryField
{
    inlet
    {
        type            calculated;
        value           nonuniform List<scalar> 
20
(
-0.000124997
-0.000374992
-0.000624988
-0.000874983
-0.00112498
-0.00137498
-0.00162497
-0.00187497
-0.00212497
-0.00237497
-0.00262497
-0.00287497
-0.00312497
-0.00337497
-0.00362498
-0.00387498
-0.00412498
-0.00437499
-0.00462499
-0.004875
)
;
    }
    outlet
    {
        type            calculated;
        value           nonuniform List<scalar> 
20
(
0.000124997
0.000374992
0.000624988
0.000874983
0.00112498
0.00137498
0.00162497
0.00187497
0.00212497
0.00237497
0.00262497
0.00287497
0.00312497
0.00337497
0.00362498
0.00387498
0.00412498
0.00437499
0.00462499
0.004875
)
;
    }
    walls
    {
        type            calculated;
        value           uniform 0;
    }
    movingWall
    {
        type            calculated;
        value           uniform 0;
    }
    frontAndBack
    {
        type            empty;
        value           nonuniform List<scalar> 0();
    }
}


// ************************************************************************* //
