/*--------------------------------*- C++ -*----------------------------------*\
| =========                 |                                                 |
| \\      /  F ield         | OpenFOAM: The Open Source CFD Toolbox           |
|  \\    /   O peration     | Version:  2312                                  |
|   \\  /    A nd           | Website:  www.openfoam.com                      |
|    \\/     M anipulation  |                                                 |
\*---------------------------------------------------------------------------*/
FoamFile
{
    version     2.0;
    format      ascii;
    arch        "LSB;label=32;scalar=64";
    class       volVectorField;
    location    "960";
    object      U;
}
// * * * * * * * * * * * * * * * * * * * * * * * * * * * * * * * * * * * * * //

dimensions      [0 1 -1 0 0 0 0];

internalField   nonuniform List<vector> 
400
(
(0.0249995 -7.97959e-11 0)
(0.0249995 -4.51644e-11 0)
(0.0249995 8.34883e-12 0)
(0.0249995 -9.21303e-12 0)
(0.0249995 4.88464e-12 0)
(0.0249995 -3.06834e-12 0)
(0.0249995 1.8754e-12 0)
(0.0249995 -1.19587e-12 0)
(0.0249995 8.23072e-13 0)
(0.0249995 -6.70838e-13 0)
(0.0249995 6.90439e-13 0)
(0.0249995 -8.89734e-13 0)
(0.0249995 1.32256e-12 0)
(0.0249995 -2.09359e-12 0)
(0.0249995 3.44297e-12 0)
(0.0249995 -5.43994e-12 0)
(0.0249995 1.02901e-11 0)
(0.0249995 -9.53384e-12 0)
(0.0249995 4.83651e-11 0)
(0.0249995 7.88436e-11 0)
(0.0749985 -4.07675e-10 0)
(0.0749985 -3.44112e-10 0)
(0.0749985 -1.86856e-11 0)
(0.0749985 -3.31207e-11 0)
(0.0749985 1.00997e-11 0)
(0.0749985 -7.56905e-12 0)
(0.0749985 4.40403e-12 0)
(0.0749985 -2.84586e-12 0)
(0.0749985 1.93834e-12 0)
(0.0749985 -1.59306e-12 0)
(0.0749985 1.63541e-12 0)
(0.0749985 -2.10449e-12 0)
(0.0749985 3.15787e-12 0)
(0.0749985 -4.89666e-12 0)
(0.0749985 8.66666e-12 0)
(0.0749985 -1.09978e-11 0)
(0.0749985 3.73086e-11 0)
(0.0749985 1.83395e-11 0)
(0.0749985 3.61542e-10 0)
(0.0749985 4.06794e-10 0)
(0.124998 -7.86197e-10 0)
(0.124998 -7.14662e-10 0)
(0.124998 -7.24271e-11 0)
(0.124998 -6.20893e-11 0)
(0.124998 1.27703e-11 0)
(0.124998 -1.15331e-11 0)
(0.124998 6.41248e-12 0)
(0.124998 -4.20235e-12 0)
(0.124998 2.83387e-12 0)
(0.124998 -2.34745e-12 0)
(0.124998 2.40414e-12 0)
(0.124998 -3.08656e-12 0)
(0.124998 4.68115e-12 0)
(0.124998 -7.08159e-12 0)
(0.124998 1.34652e-11 0)
(0.124998 -1.34132e-11 0)
(0.124998 7.0538e-11 0)
(0.124998 7.54428e-11 0)
(0.124998 7.51891e-10 0)
(0.124998 7.87159e-10 0)
(0.174997 -1.10395e-09 0)
(0.174997 -1.05389e-09 0)
(0.174997 -1.37775e-10 0)
(0.174997 -8.67185e-11 0)
(0.174997 1.16376e-11 0)
(0.174997 -1.34247e-11 0)
(0.174997 7.10581e-12 0)
(0.174997 -4.73399e-12 0)
(0.174997 3.15106e-12 0)
(0.174997 -2.6389e-12 0)
(0.174997 2.69381e-12 0)
(0.174997 -3.4459e-12 0)
(0.174997 5.30439e-12 0)
(0.174997 -7.7587e-12 0)
(0.174997 1.61039e-11 0)
(0.174997 -1.12564e-11 0)
(0.174997 9.97695e-11 0)
(0.174997 1.46562e-10 0)
(0.174997 1.11243e-09 0)
(0.174997 1.10751e-09 0)
(0.224996 -1.29036e-09 0)
(0.224996 -1.27219e-09 0)
(0.224996 -1.90557e-10 0)
(0.224996 -1.01767e-10 0)
(0.224996 8.88587e-12 0)
(0.224996 -1.35747e-11 0)
(0.224996 6.8977e-12 0)
(0.224996 -4.66689e-12 0)
(0.224996 3.0572e-12 0)
(0.224996 -2.5985e-12 0)
(0.224996 2.64087e-12 0)
(0.224996 -3.36021e-12 0)
(0.224996 5.27487e-12 0)
(0.224996 -7.39351e-12 0)
(0.224996 1.6916e-11 0)
(0.224996 -6.96908e-12 0)
(0.224996 1.1939e-10 0)
(0.224996 2.06325e-10 0)
(0.224996 1.35036e-09 0)
(0.224996 1.29537e-09 0)
(0.274995 -1.31755e-09 0)
(0.274995 -1.32623e-09 0)
(0.274995 -2.14088e-10 0)
(0.274995 -1.0377e-10 0)
(0.274995 6.4478e-12 0)
(0.274995 -1.23194e-11 0)
(0.274995 6.17991e-12 0)
(0.274995 -4.21546e-12 0)
(0.274995 2.71042e-12 0)
(0.274995 -2.35054e-12 0)
(0.274995 2.37436e-12 0)
(0.274995 -2.99865e-12 0)
(0.274995 4.8256e-12 0)
(0.274995 -6.43287e-12 0)
(0.274995 1.62356e-11 0)
(0.274995 -2.74161e-12 0)
(0.274995 1.25624e-10 0)
(0.274995 2.3701e-10 0)
(0.274995 1.42015e-09 0)
(0.274995 1.32135e-09 0)
(0.324994 -1.18429e-09 0)
(0.324994 -1.20675e-09 0)
(0.324994 -2.00526e-10 0)
(0.324994 -9.10402e-11 0)
(0.324994 5.4374e-12 0)
(0.324994 -9.84562e-12 0)
(0.324994 5.17717e-12 0)
(0.324994 -3.50049e-12 0)
(0.324994 2.20113e-12 0)
(0.324994 -1.96515e-12 0)
(0.324994 1.96739e-12 0)
(0.324994 -2.45827e-12 0)
(0.324994 4.08514e-12 0)
(0.324994 -5.14208e-12 0)
(0.324994 1.42196e-11 0)
(0.324994 1.02731e-13 0)
(0.324994 1.16462e-10 0)
(0.324994 2.29989e-10 0)
(0.324994 1.31097e-09 0)
(0.324994 1.18321e-09 0)
(0.374994 -9.08678e-10 0)
(0.374994 -9.29385e-10 0)
(0.374994 -1.49844e-10 0)
(0.374994 -6.41278e-11 0)
(0.374994 6.24966e-12 0)
(0.374994 -6.35109e-12 0)
(0.374994 4.01731e-12 0)
(0.374994 -2.60066e-12 0)
(0.374994 1.58621e-12 0)
(0.374994 -1.48628e-12 0)
(0.374994 1.46581e-12 0)
(0.374994 -1.80048e-12 0)
(0.374994 3.13484e-12 0)
(0.374994 -3.68151e-12 0)
(0.374994 1.10268e-11 0)
(0.374994 9.93589e-13 0)
(0.374994 9.21721e-11 0)
(0.374994 1.84654e-10 0)
(0.374994 1.03756e-09 0)
(0.374994 8.98565e-10 0)
(0.424994 -5.2353e-10 0)
(0.424994 -5.28752e-10 0)
(0.424994 -6.86555e-11 0)
(0.424994 -2.58333e-11 0)
(0.424994 8.66329e-12 0)
(0.424994 -2.11792e-12 0)
(0.424994 2.77063e-12 0)
(0.424994 -1.57944e-12 0)
(0.424994 9.07092e-13 0)
(0.424994 -9.46539e-13 0)
(0.424994 9.03703e-13 0)
(0.424994 -1.07035e-12 0)
(0.424994 2.03941e-12 0)
(0.424994 -2.14839e-12 0)
(0.424994 6.90454e-12 0)
(0.424994 8.07168e-15 0)
(0.424994 5.53386e-11 0)
(0.424994 1.07221e-10 0)
(0.424994 6.34224e-10 0)
(0.424994 5.00264e-10 0)
(0.474993 -7.19436e-11 0)
(0.474993 -5.28508e-11 0)
(0.474993 3.13412e-11 0)
(0.474993 1.92276e-11 0)
(0.474993 1.19655e-11 0)
(0.474993 2.48973e-12 0)
(0.474993 1.46659e-12 0)
(0.474993 -4.92308e-13 0)
(0.474993 1.95519e-13 0)
(0.474993 -3.71746e-13 0)
(0.474993 3.07942e-13 0)
(0.474993 -3.02585e-13 0)
(0.474993 8.55627e-13 0)
(0.474993 -5.93148e-13 0)
(0.474993 2.19293e-12 0)
(0.474993 -2.24947e-12 0)
(0.474993 1.04484e-11 0)
(0.474993 9.16987e-12 0)
(0.474993 1.49317e-10 0)
(0.474993 3.19883e-11 0)
(0.524993 3.97184e-10 0)
(0.524993 4.42618e-10 0)
(0.524993 1.35362e-10 0)
(0.524993 6.53226e-11 0)
(0.524993 1.51429e-11 0)
(0.524993 7.05905e-12 0)
(0.524993 1.11127e-13 0)
(0.524993 6.10311e-13 0)
(0.524993 -5.22686e-13 0)
(0.524993 2.16235e-13 0)
(0.524993 -2.98768e-13 0)
(0.524993 4.74584e-13 0)
(0.524993 -3.63691e-13 0)
(0.524993 9.64019e-13 0)
(0.524993 -2.70382e-12 0)
(0.524993 -4.83466e-12 0)
(0.524993 -3.68009e-11 0)
(0.524993 -9.47612e-11 0)
(0.524993 -3.60526e-10 0)
(0.524993 -4.5627e-10 0)
(0.574994 8.33505e-10 0)
(0.574994 8.99957e-10 0)
(0.574994 2.27785e-10 0)
(0.574994 1.06448e-10 0)
(0.574994 1.71201e-11 0)
(0.574994 1.11765e-11 0)
(0.574994 -1.29339e-12 0)
(0.574994 1.68064e-12 0)
(0.574994 -1.22363e-12 0)
(0.574994 7.96821e-13 0)
(0.574994 -8.95135e-13 0)
(0.574994 1.23518e-12 0)
(0.574994 -1.56656e-12 0)
(0.574994 2.51294e-12 0)
(0.574994 -7.36184e-12 0)
(0.574994 -6.70015e-12 0)
(0.574994 -8.03409e-11 0)
(0.574994 -1.88842e-10 0)
(0.574994 -8.36165e-10 0)
(0.574994 -9.12604e-10 0)
(0.624994 1.18947e-09 0)
(0.624994 1.26513e-09 0)
(0.624994 2.94471e-10 0)
(0.624994 1.37214e-10 0)
(0.624994 1.7011e-11 0)
(0.624994 1.44795e-11 0)
(0.624994 -2.72739e-12 0)
(0.624994 2.67172e-12 0)
(0.624994 -1.8816e-12 0)
(0.624994 1.34785e-12 0)
(0.624994 -1.45838e-12 0)
(0.624994 1.95149e-12 0)
(0.624994 -2.69924e-12 0)
(0.624994 4.03202e-12 0)
(0.624994 -1.13872e-11 0)
(0.624994 -6.94739e-12 0)
(0.624994 -1.14617e-10 0)
(0.624994 -2.58689e-10 0)
(0.624994 -1.22171e-09 0)
(0.624994 -1.28754e-09 0)
(0.674994 1.4246e-09 0)
(0.674994 1.49333e-09 0)
(0.674994 3.24967e-10 0)
(0.674994 1.53666e-10 0)
(0.674994 1.43467e-11 0)
(0.674994 1.66995e-11 0)
(0.674994 -4.13607e-12 0)
(0.674994 3.53411e-12 0)
(0.674994 -2.46515e-12 0)
(0.674994 1.84301e-12 0)
(0.674994 -1.96147e-12 0)
(0.674994 2.5898e-12 0)
(0.674994 -3.703e-12 0)
(0.674994 5.46873e-12 0)
(0.674994 -1.44584e-11 0)
(0.674994 -5.05776e-12 0)
(0.674994 -1.35412e-10 0)
(0.674994 -2.93504e-10 0)
(0.674994 -1.47026e-09 0)
(0.674994 -1.53839e-09 0)
(0.724995 1.50975e-09 0)
(0.724995 1.55449e-09 0)
(0.724995 3.14418e-10 0)
(0.724995 1.53937e-10 0)
(0.724995 9.24482e-12 0)
(0.724995 1.76862e-11 0)
(0.724995 -5.41548e-12 0)
(0.724995 4.21221e-12 0)
(0.724995 -2.93376e-12 0)
(0.724995 2.24874e-12 0)
(0.724995 -2.3701e-12 0)
(0.724995 3.10643e-12 0)
(0.724995 -4.51002e-12 0)
(0.724995 6.72355e-12 0)
(0.724995 -1.63517e-11 0)
(0.724995 -1.06896e-12 0)
(0.724995 -1.4051e-10 0)
(0.724995 -2.88016e-10 0)
(0.724995 -1.54955e-09 0)
(0.724995 -1.63373e-09 0)
(0.774996 1.43131e-09 0)
(0.774996 1.43847e-09 0)
(0.774996 2.64996e-10 0)
(0.774996 1.38611e-10 0)
(0.774996 2.50258e-12 0)
(0.774996 1.73958e-11 0)
(0.774996 -6.40133e-12 0)
(0.774996 4.63509e-12 0)
(0.774996 -3.2323e-12 0)
(0.774996 2.51987e-12 0)
(0.774996 -2.63828e-12 0)
(0.774996 3.44181e-12 0)
(0.774996 -5.03436e-12 0)
(0.774996 7.6353e-12 0)
(0.774996 -1.69312e-11 0)
(0.774996 4.31992e-12 0)
(0.774996 -1.30062e-10 0)
(0.774996 -2.43964e-10 0)
(0.774996 -1.44741e-09 0)
(0.774996 -1.55772e-09 0)
(0.824997 1.19539e-09 0)
(0.824997 1.16057e-09 0)
(0.824997 1.86912e-10 0)
(0.824997 1.10631e-10 0)
(0.824997 -4.33997e-12 0)
(0.824997 1.58019e-11 0)
(0.824997 -6.83519e-12 0)
(0.824997 4.68824e-12 0)
(0.824997 -3.27374e-12 0)
(0.824997 2.58439e-12 0)
(0.824997 -2.69257e-12 0)
(0.824997 3.50124e-12 0)
(0.824997 -5.14154e-12 0)
(0.824997 7.93983e-12 0)
(0.824997 -1.60582e-11 0)
(0.824997 9.6592e-12 0)
(0.824997 -1.06507e-10 0)
(0.824997 -1.71202e-10 0)
(0.824997 -1.17747e-09 0)
(0.824997 -1.31458e-09 0)
(0.874998 8.34909e-10 0)
(0.874998 7.70332e-10 0)
(0.874998 9.93062e-11 0)
(0.874998 7.47791e-11 0)
(0.874998 -8.9393e-12 0)
(0.874998 1.27192e-11 0)
(0.874998 -6.30198e-12 0)
(0.874998 4.15991e-12 0)
(0.874998 -2.90551e-12 0)
(0.874998 2.31548e-12 0)
(0.874998 -2.40344e-12 0)
(0.874998 3.1184e-12 0)
(0.874998 -4.59066e-12 0)
(0.874998 7.1955e-12 0)
(0.874998 -1.34043e-11 0)
(0.874998 1.26498e-11 0)
(0.874998 -7.40084e-11 0)
(0.874998 -8.87328e-11 0)
(0.874998 -7.88301e-10 0)
(0.874998 -9.35847e-10 0)
(0.924998 4.25316e-10 0)
(0.924998 3.63386e-10 0)
(0.924998 2.88805e-11 0)
(0.924998 3.76416e-11 0)
(0.924998 -8.74105e-12 0)
(0.924998 7.9464e-12 0)
(0.924998 -4.38136e-12 0)
(0.924998 2.82e-12 0)
(0.924998 -1.96783e-12 0)
(0.924998 1.5794e-12 0)
(0.924998 -1.63481e-12 0)
(0.924998 2.11785e-12 0)
(0.924998 -3.12378e-12 0)
(0.924998 4.94795e-12 0)
(0.924998 -8.62563e-12 0)
(0.924998 1.07725e-11 0)
(0.924998 -3.85064e-11 0)
(0.924998 -2.32569e-11 0)
(0.924998 -3.75953e-10 0)
(0.924998 -4.95944e-10 0)
(0.974999 8.1145e-11 0)
(0.974999 4.60428e-11 0)
(0.974999 -7.36938e-12 0)
(0.974999 9.41624e-12 0)
(0.974999 -4.77974e-12 0)
(0.974999 3.06924e-12 0)
(0.974999 -1.87461e-12 0)
(0.974999 1.19024e-12 0)
(0.974999 -8.25581e-13 0)
(0.974999 6.68948e-13 0)
(0.974999 -6.90158e-13 0)
(0.974999 8.91612e-13 0)
(0.974999 -1.32088e-12 0)
(0.974999 2.10058e-12 0)
(0.974999 -3.4378e-12 0)
(0.974999 5.44362e-12 0)
(0.974999 -1.03674e-11 0)
(0.974999 9.26174e-12 0)
(0.974999 -4.9945e-11 0)
(0.974999 -1.07685e-10 0)
)
;

boundaryField
{
    inlet
    {
        type            zeroGradient;
    }
    outlet
    {
        type            zeroGradient;
    }
    walls
    {
        type            noSlip;
    }
    movingWall
    {
        type            movingWallVelocity;
        value           uniform (1 0 0);
    }
    frontAndBack
    {
        type            empty;
    }
}


// ************************************************************************* //
