/*--------------------------------*- C++ -*----------------------------------*\
| =========                 |                                                 |
| \\      /  F ield         | OpenFOAM: The Open Source CFD Toolbox           |
|  \\    /   O peration     | Version:  2312                                  |
|   \\  /    A nd           | Website:  www.openfoam.com                      |
|    \\/     M anipulation  |                                                 |
\*---------------------------------------------------------------------------*/
FoamFile
{
    version     2.0;
    format      ascii;
    arch        "LSB;label=32;scalar=64";
    class       volVectorField;
    location    "960";
    object      Uerr;
}
// * * * * * * * * * * * * * * * * * * * * * * * * * * * * * * * * * * * * * //

dimensions      [0 1 -1 0 0 0 0];

internalField   nonuniform List<vector> 
400
(
(-5.12629e-07 -7.97959e-11 0)
(-5.11247e-07 -4.51644e-11 0)
(-5.10778e-07 8.34883e-12 0)
(-5.10892e-07 -9.21303e-12 0)
(-5.10774e-07 4.88464e-12 0)
(-5.10839e-07 -3.06834e-12 0)
(-5.10799e-07 1.8754e-12 0)
(-5.10823e-07 -1.19587e-12 0)
(-5.1081e-07 8.23072e-13 0)
(-5.10815e-07 -6.70838e-13 0)
(-5.10816e-07 6.90439e-13 0)
(-5.10809e-07 -8.89734e-13 0)
(-5.10824e-07 1.32256e-12 0)
(-5.10797e-07 -2.09359e-12 0)
(-5.10843e-07 3.44297e-12 0)
(-5.1077e-07 -5.43994e-12 0)
(-5.10902e-07 1.02901e-11 0)
(-5.10777e-07 -9.53384e-12 0)
(-5.11285e-07 4.83651e-11 0)
(-5.12681e-07 7.88436e-11 0)
(-1.52047e-06 -4.07675e-10 0)
(-1.51808e-06 -3.44112e-10 0)
(-1.51696e-06 -1.86856e-11 0)
(-1.51724e-06 -3.31207e-11 0)
(-1.51695e-06 1.00997e-11 0)
(-1.51711e-06 -7.56905e-12 0)
(-1.51701e-06 4.40403e-12 0)
(-1.51707e-06 -2.84586e-12 0)
(-1.51704e-06 1.93834e-12 0)
(-1.51705e-06 -1.59306e-12 0)
(-1.51705e-06 1.63541e-12 0)
(-1.51704e-06 -2.10449e-12 0)
(-1.51707e-06 3.15787e-12 0)
(-1.51701e-06 -4.89666e-12 0)
(-1.51712e-06 8.66666e-12 0)
(-1.51694e-06 -1.09978e-11 0)
(-1.51726e-06 3.73086e-11 0)
(-1.51696e-06 1.83395e-11 0)
(-1.51818e-06 3.61542e-10 0)
(-1.52058e-06 4.06794e-10 0)
(-2.49212e-06 -7.86197e-10 0)
(-2.48995e-06 -7.14662e-10 0)
(-2.48845e-06 -7.24271e-11 0)
(-2.48887e-06 -6.20893e-11 0)
(-2.48847e-06 1.27703e-11 0)
(-2.48869e-06 -1.15331e-11 0)
(-2.48856e-06 6.41248e-12 0)
(-2.48864e-06 -4.20235e-12 0)
(-2.48859e-06 2.83387e-12 0)
(-2.48861e-06 -2.34745e-12 0)
(-2.48861e-06 2.40414e-12 0)
(-2.48859e-06 -3.08656e-12 0)
(-2.48864e-06 4.68115e-12 0)
(-2.48855e-06 -7.08159e-12 0)
(-2.4887e-06 1.34652e-11 0)
(-2.48846e-06 -1.34132e-11 0)
(-2.48891e-06 7.0538e-11 0)
(-2.48845e-06 7.54428e-11 0)
(-2.49009e-06 7.51891e-10 0)
(-2.49226e-06 7.87159e-10 0)
(-3.40342e-06 -1.10395e-09 0)
(-3.40225e-06 -1.05389e-09 0)
(-3.4006e-06 -1.37775e-10 0)
(-3.40118e-06 -8.67185e-11 0)
(-3.4007e-06 1.16376e-11 0)
(-3.40097e-06 -1.34247e-11 0)
(-3.40081e-06 7.10581e-12 0)
(-3.4009e-06 -4.73399e-12 0)
(-3.40085e-06 3.15106e-12 0)
(-3.40087e-06 -2.6389e-12 0)
(-3.40087e-06 2.69381e-12 0)
(-3.40085e-06 -3.4459e-12 0)
(-3.4009e-06 5.30439e-12 0)
(-3.4008e-06 -7.7587e-12 0)
(-3.40098e-06 1.61039e-11 0)
(-3.40069e-06 -1.12564e-11 0)
(-3.40123e-06 9.97695e-11 0)
(-3.4006e-06 1.46562e-10 0)
(-3.40241e-06 1.11243e-09 0)
(-3.40356e-06 1.10751e-09 0)
(-4.23166e-06 -1.29036e-09 0)
(-4.23191e-06 -1.27219e-09 0)
(-4.23029e-06 -1.90557e-10 0)
(-4.23103e-06 -1.01767e-10 0)
(-4.23051e-06 8.88587e-12 0)
(-4.23082e-06 -1.35747e-11 0)
(-4.23064e-06 6.8977e-12 0)
(-4.23074e-06 -4.66689e-12 0)
(-4.23068e-06 3.0572e-12 0)
(-4.23071e-06 -2.5985e-12 0)
(-4.23071e-06 2.64087e-12 0)
(-4.23068e-06 -3.36021e-12 0)
(-4.23075e-06 5.27487e-12 0)
(-4.23063e-06 -7.39351e-12 0)
(-4.23083e-06 1.6916e-11 0)
(-4.2305e-06 -6.96908e-12 0)
(-4.23109e-06 1.1939e-10 0)
(-4.23028e-06 2.06325e-10 0)
(-4.23209e-06 1.35036e-09 0)
(-4.23176e-06 1.29537e-09 0)
(-4.95616e-06 -1.31755e-09 0)
(-4.95799e-06 -1.32623e-09 0)
(-4.9565e-06 -2.14088e-10 0)
(-4.95742e-06 -1.0377e-10 0)
(-4.95687e-06 6.4478e-12 0)
(-4.9572e-06 -1.23194e-11 0)
(-4.95701e-06 6.17991e-12 0)
(-4.95712e-06 -4.21546e-12 0)
(-4.95706e-06 2.71042e-12 0)
(-4.95709e-06 -2.35054e-12 0)
(-4.95709e-06 2.37436e-12 0)
(-4.95706e-06 -2.99865e-12 0)
(-4.95713e-06 4.8256e-12 0)
(-4.957e-06 -6.43287e-12 0)
(-4.95722e-06 1.62356e-11 0)
(-4.95686e-06 -2.74161e-12 0)
(-4.95747e-06 1.25624e-10 0)
(-4.95649e-06 2.3701e-10 0)
(-4.95817e-06 1.42015e-09 0)
(-4.9562e-06 1.32135e-09 0)
(-5.55882e-06 -1.18429e-09 0)
(-5.56215e-06 -1.20675e-09 0)
(-5.56084e-06 -2.00526e-10 0)
(-5.56192e-06 -9.10402e-11 0)
(-5.56137e-06 5.4374e-12 0)
(-5.56172e-06 -9.84562e-12 0)
(-5.56152e-06 5.17717e-12 0)
(-5.56164e-06 -3.50049e-12 0)
(-5.56157e-06 2.20113e-12 0)
(-5.5616e-06 -1.96515e-12 0)
(-5.5616e-06 1.96739e-12 0)
(-5.56157e-06 -2.45827e-12 0)
(-5.56165e-06 4.08514e-12 0)
(-5.56151e-06 -5.14208e-12 0)
(-5.56174e-06 1.42196e-11 0)
(-5.56135e-06 1.02731e-13 0)
(-5.56198e-06 1.16462e-10 0)
(-5.56082e-06 2.29989e-10 0)
(-5.56233e-06 1.31097e-09 0)
(-5.55879e-06 1.18321e-09 0)
(-6.02457e-06 -9.08678e-10 0)
(-6.02914e-06 -9.29385e-10 0)
(-6.02802e-06 -1.49844e-10 0)
(-6.02923e-06 -6.41278e-11 0)
(-6.02868e-06 6.24966e-12 0)
(-6.02905e-06 -6.35109e-12 0)
(-6.02884e-06 4.01731e-12 0)
(-6.02896e-06 -2.60066e-12 0)
(-6.0289e-06 1.58621e-12 0)
(-6.02893e-06 -1.48628e-12 0)
(-6.02893e-06 1.46581e-12 0)
(-6.02889e-06 -1.80048e-12 0)
(-6.02897e-06 3.13484e-12 0)
(-6.02883e-06 -3.68151e-12 0)
(-6.02907e-06 1.10268e-11 0)
(-6.02866e-06 9.93589e-13 0)
(-6.02929e-06 9.21721e-11 0)
(-6.02798e-06 1.84654e-10 0)
(-6.02931e-06 1.03756e-09 0)
(-6.02446e-06 8.98565e-10 0)
(-6.34174e-06 -5.2353e-10 0)
(-6.34719e-06 -5.28752e-10 0)
(-6.3462e-06 -6.86555e-11 0)
(-6.34751e-06 -2.58333e-11 0)
(-6.34696e-06 8.66329e-12 0)
(-6.34734e-06 -2.11792e-12 0)
(-6.34713e-06 2.77063e-12 0)
(-6.34725e-06 -1.57944e-12 0)
(-6.34719e-06 9.07092e-13 0)
(-6.34721e-06 -9.46539e-13 0)
(-6.34722e-06 9.03703e-13 0)
(-6.34718e-06 -1.07035e-12 0)
(-6.34726e-06 2.03941e-12 0)
(-6.34712e-06 -2.14839e-12 0)
(-6.34736e-06 6.90454e-12 0)
(-6.34694e-06 8.07168e-15 0)
(-6.34757e-06 5.53386e-11 0)
(-6.34615e-06 1.07221e-10 0)
(-6.34734e-06 6.34224e-10 0)
(-6.34155e-06 5.00264e-10 0)
(-6.50241e-06 -7.19436e-11 0)
(-6.50827e-06 -5.28508e-11 0)
(-6.50735e-06 3.13412e-11 0)
(-6.5087e-06 1.92276e-11 0)
(-6.50815e-06 1.19655e-11 0)
(-6.50853e-06 2.48973e-12 0)
(-6.50832e-06 1.46659e-12 0)
(-6.50844e-06 -4.92308e-13 0)
(-6.50837e-06 1.95519e-13 0)
(-6.5084e-06 -3.71746e-13 0)
(-6.50841e-06 3.07942e-13 0)
(-6.50837e-06 -3.02585e-13 0)
(-6.50845e-06 8.55627e-13 0)
(-6.5083e-06 -5.93148e-13 0)
(-6.50855e-06 2.19293e-12 0)
(-6.50812e-06 -2.24947e-12 0)
(-6.50875e-06 1.04484e-11 0)
(-6.50727e-06 9.16987e-12 0)
(-6.50839e-06 1.49317e-10 0)
(-6.50214e-06 3.19883e-11 0)
(-6.50252e-06 3.97184e-10 0)
(-6.50831e-06 4.42618e-10 0)
(-6.50737e-06 1.35362e-10 0)
(-6.5087e-06 6.53226e-11 0)
(-6.50815e-06 1.51429e-11 0)
(-6.50853e-06 7.05905e-12 0)
(-6.50832e-06 1.11127e-13 0)
(-6.50844e-06 6.10311e-13 0)
(-6.50837e-06 -5.22686e-13 0)
(-6.5084e-06 2.16235e-13 0)
(-6.50841e-06 -2.98768e-13 0)
(-6.50837e-06 4.74584e-13 0)
(-6.50845e-06 -3.63691e-13 0)
(-6.5083e-06 9.64019e-13 0)
(-6.50855e-06 -2.70382e-12 0)
(-6.50812e-06 -4.83466e-12 0)
(-6.50875e-06 -3.68009e-11 0)
(-6.50728e-06 -9.47612e-11 0)
(-6.50842e-06 -3.60526e-10 0)
(-6.50219e-06 -4.5627e-10 0)
(-6.34209e-06 8.33505e-10 0)
(-6.34732e-06 8.99957e-10 0)
(-6.34627e-06 2.27785e-10 0)
(-6.34753e-06 1.06448e-10 0)
(-6.34697e-06 1.71201e-11 0)
(-6.34734e-06 1.11765e-11 0)
(-6.34713e-06 -1.29339e-12 0)
(-6.34725e-06 1.68064e-12 0)
(-6.34719e-06 -1.22363e-12 0)
(-6.34721e-06 7.96821e-13 0)
(-6.34722e-06 -8.95135e-13 0)
(-6.34718e-06 1.23518e-12 0)
(-6.34726e-06 -1.56656e-12 0)
(-6.34712e-06 2.51294e-12 0)
(-6.34736e-06 -7.36184e-12 0)
(-6.34694e-06 -6.70015e-12 0)
(-6.34757e-06 -8.03409e-11 0)
(-6.34617e-06 -1.88842e-10 0)
(-6.3474e-06 -8.36165e-10 0)
(-6.34171e-06 -9.12604e-10 0)
(-6.0251e-06 1.18947e-09 0)
(-6.02934e-06 1.26513e-09 0)
(-6.02812e-06 2.94471e-10 0)
(-6.02926e-06 1.37214e-10 0)
(-6.02869e-06 1.7011e-11 0)
(-6.02905e-06 1.44795e-11 0)
(-6.02884e-06 -2.72739e-12 0)
(-6.02896e-06 2.67172e-12 0)
(-6.0289e-06 -1.8816e-12 0)
(-6.02892e-06 1.34785e-12 0)
(-6.02893e-06 -1.45838e-12 0)
(-6.02889e-06 1.95149e-12 0)
(-6.02897e-06 -2.69924e-12 0)
(-6.02883e-06 4.03202e-12 0)
(-6.02907e-06 -1.13872e-11 0)
(-6.02866e-06 -6.94739e-12 0)
(-6.0293e-06 -1.14617e-10 0)
(-6.02801e-06 -2.58689e-10 0)
(-6.02941e-06 -1.22171e-09 0)
(-6.0247e-06 -1.28754e-09 0)
(-5.5595e-06 1.4246e-09 0)
(-5.5624e-06 1.49333e-09 0)
(-5.56098e-06 3.24967e-10 0)
(-5.56196e-06 1.53666e-10 0)
(-5.56139e-06 1.43467e-11 0)
(-5.56172e-06 1.66995e-11 0)
(-5.56152e-06 -4.13607e-12 0)
(-5.56164e-06 3.53411e-12 0)
(-5.56157e-06 -2.46515e-12 0)
(-5.5616e-06 1.84301e-12 0)
(-5.5616e-06 -1.96147e-12 0)
(-5.56157e-06 2.5898e-12 0)
(-5.56165e-06 -3.703e-12 0)
(-5.56151e-06 5.46873e-12 0)
(-5.56174e-06 -1.44584e-11 0)
(-5.56135e-06 -5.05776e-12 0)
(-5.56199e-06 -1.35412e-10 0)
(-5.56086e-06 -2.93504e-10 0)
(-5.56245e-06 -1.47026e-09 0)
(-5.5591e-06 -1.53839e-09 0)
(-4.95692e-06 1.50975e-09 0)
(-4.95827e-06 1.55449e-09 0)
(-4.95665e-06 3.14418e-10 0)
(-4.95746e-06 1.53937e-10 0)
(-4.95689e-06 9.24482e-12 0)
(-4.95721e-06 1.76862e-11 0)
(-4.95701e-06 -5.41548e-12 0)
(-4.95712e-06 4.21221e-12 0)
(-4.95706e-06 -2.93376e-12 0)
(-4.95709e-06 2.24874e-12 0)
(-4.95709e-06 -2.3701e-12 0)
(-4.95706e-06 3.10643e-12 0)
(-4.95713e-06 -4.51002e-12 0)
(-4.957e-06 6.72355e-12 0)
(-4.95722e-06 -1.63517e-11 0)
(-4.95686e-06 -1.06896e-12 0)
(-4.95748e-06 -1.4051e-10 0)
(-4.95653e-06 -2.88016e-10 0)
(-4.95832e-06 -1.54955e-09 0)
(-4.95655e-06 -1.63373e-09 0)
(-4.23243e-06 1.43131e-09 0)
(-4.2322e-06 1.43847e-09 0)
(-4.23044e-06 2.64996e-10 0)
(-4.23107e-06 1.38611e-10 0)
(-4.23053e-06 2.50258e-12 0)
(-4.23082e-06 1.73958e-11 0)
(-4.23064e-06 -6.40133e-12 0)
(-4.23074e-06 4.63509e-12 0)
(-4.23068e-06 -3.2323e-12 0)
(-4.23071e-06 2.51987e-12 0)
(-4.23071e-06 -2.63828e-12 0)
(-4.23068e-06 3.44181e-12 0)
(-4.23075e-06 -5.03436e-12 0)
(-4.23063e-06 7.6353e-12 0)
(-4.23083e-06 -1.69312e-11 0)
(-4.2305e-06 4.31992e-12 0)
(-4.2311e-06 -1.30062e-10 0)
(-4.23032e-06 -2.43964e-10 0)
(-4.23224e-06 -1.44741e-09 0)
(-4.23211e-06 -1.55772e-09 0)
(-3.40413e-06 1.19539e-09 0)
(-3.40251e-06 1.16057e-09 0)
(-3.40074e-06 1.86912e-10 0)
(-3.40121e-06 1.10631e-10 0)
(-3.40072e-06 -4.33997e-12 0)
(-3.40097e-06 1.58019e-11 0)
(-3.40081e-06 -6.83519e-12 0)
(-3.4009e-06 4.68824e-12 0)
(-3.40085e-06 -3.27374e-12 0)
(-3.40087e-06 2.58439e-12 0)
(-3.40087e-06 -2.69257e-12 0)
(-3.40084e-06 3.50124e-12 0)
(-3.4009e-06 -5.14154e-12 0)
(-3.4008e-06 7.93983e-12 0)
(-3.40098e-06 -1.60582e-11 0)
(-3.40069e-06 9.6592e-12 0)
(-3.40123e-06 -1.06507e-10 0)
(-3.40063e-06 -1.71202e-10 0)
(-3.40255e-06 -1.17747e-09 0)
(-3.40389e-06 -1.31458e-09 0)
(-2.49269e-06 8.34909e-10 0)
(-2.49016e-06 7.70332e-10 0)
(-2.48856e-06 9.93062e-11 0)
(-2.4889e-06 7.47791e-11 0)
(-2.48848e-06 -8.9393e-12 0)
(-2.48869e-06 1.27192e-11 0)
(-2.48856e-06 -6.30198e-12 0)
(-2.48863e-06 4.15991e-12 0)
(-2.48859e-06 -2.90551e-12 0)
(-2.48861e-06 2.31548e-12 0)
(-2.48861e-06 -2.40344e-12 0)
(-2.48859e-06 3.1184e-12 0)
(-2.48864e-06 -4.59066e-12 0)
(-2.48855e-06 7.1955e-12 0)
(-2.4887e-06 -1.34043e-11 0)
(-2.48846e-06 1.26498e-11 0)
(-2.48892e-06 -7.40084e-11 0)
(-2.48848e-06 -8.87328e-11 0)
(-2.4902e-06 -7.88301e-10 0)
(-2.49253e-06 -9.35847e-10 0)
(-1.52084e-06 4.25316e-10 0)
(-1.51822e-06 3.63386e-10 0)
(-1.51704e-06 2.88805e-11 0)
(-1.51725e-06 3.76416e-11 0)
(-1.51696e-06 -8.74105e-12 0)
(-1.51711e-06 7.9464e-12 0)
(-1.51701e-06 -4.38136e-12 0)
(-1.51707e-06 2.82e-12 0)
(-1.51704e-06 -1.96783e-12 0)
(-1.51705e-06 1.5794e-12 0)
(-1.51705e-06 -1.63481e-12 0)
(-1.51704e-06 2.11785e-12 0)
(-1.51707e-06 -3.12378e-12 0)
(-1.51701e-06 4.94795e-12 0)
(-1.51712e-06 -8.62563e-12 0)
(-1.51694e-06 1.07725e-11 0)
(-1.51727e-06 -3.85064e-11 0)
(-1.51697e-06 -2.32569e-11 0)
(-1.51825e-06 -3.75953e-10 0)
(-1.52076e-06 -4.95944e-10 0)
(-5.12758e-07 8.1145e-11 0)
(-5.11296e-07 4.60428e-11 0)
(-5.10806e-07 -7.36938e-12 0)
(-5.10897e-07 9.41624e-12 0)
(-5.10776e-07 -4.77974e-12 0)
(-5.10839e-07 3.06924e-12 0)
(-5.10799e-07 -1.87461e-12 0)
(-5.10822e-07 1.19024e-12 0)
(-5.1081e-07 -8.25581e-13 0)
(-5.10815e-07 6.68948e-13 0)
(-5.10816e-07 -6.90158e-13 0)
(-5.10809e-07 8.91612e-13 0)
(-5.10824e-07 -1.32088e-12 0)
(-5.10797e-07 2.10058e-12 0)
(-5.10842e-07 -3.4378e-12 0)
(-5.1077e-07 5.44362e-12 0)
(-5.10903e-07 -1.03674e-11 0)
(-5.10781e-07 9.26174e-12 0)
(-5.11315e-07 -4.9945e-11 0)
(-5.12748e-07 -1.07685e-10 0)
)
;

boundaryField
{
    inlet
    {
        type            calculated;
        value           nonuniform List<vector> 
20
(
(-5.12629e-07 -7.97959e-11 0)
(-1.52047e-06 -4.07675e-10 0)
(-2.49212e-06 -7.86197e-10 0)
(-3.40342e-06 -1.10395e-09 0)
(-4.23166e-06 -1.29036e-09 0)
(-4.95616e-06 -1.31755e-09 0)
(-5.55882e-06 -1.18429e-09 0)
(-6.02457e-06 -9.08678e-10 0)
(-6.34174e-06 -5.2353e-10 0)
(-6.50241e-06 -7.19436e-11 0)
(-6.50252e-06 3.97184e-10 0)
(-6.34209e-06 8.33505e-10 0)
(-6.0251e-06 1.18947e-09 0)
(-5.5595e-06 1.4246e-09 0)
(-4.95692e-06 1.50975e-09 0)
(-4.23243e-06 1.43131e-09 0)
(-3.40413e-06 1.19539e-09 0)
(-2.49269e-06 8.34909e-10 0)
(-1.52084e-06 4.25316e-10 0)
(-5.12758e-07 8.1145e-11 0)
)
;
    }
    outlet
    {
        type            calculated;
        value           nonuniform List<vector> 
20
(
(-5.12681e-07 7.88436e-11 0)
(-1.52058e-06 4.06794e-10 0)
(-2.49226e-06 7.87159e-10 0)
(-3.40356e-06 1.10751e-09 0)
(-4.23176e-06 1.29537e-09 0)
(-4.9562e-06 1.32135e-09 0)
(-5.55879e-06 1.18321e-09 0)
(-6.02446e-06 8.98565e-10 0)
(-6.34155e-06 5.00264e-10 0)
(-6.50214e-06 3.19883e-11 0)
(-6.50219e-06 -4.5627e-10 0)
(-6.34171e-06 -9.12604e-10 0)
(-6.0247e-06 -1.28754e-09 0)
(-5.5591e-06 -1.53839e-09 0)
(-4.95655e-06 -1.63373e-09 0)
(-4.23211e-06 -1.55772e-09 0)
(-3.40389e-06 -1.31458e-09 0)
(-2.49253e-06 -9.35847e-10 0)
(-1.52076e-06 -4.95944e-10 0)
(-5.12748e-07 -1.07685e-10 0)
)
;
    }
    walls
    {
        type            calculated;
        value           uniform (0 0 0);
    }
    movingWall
    {
        type            calculated;
        value           uniform (0 0 0);
    }
    frontAndBack
    {
        type            empty;
    }
}


// ************************************************************************* //
