/*--------------------------------*- C++ -*----------------------------------*\
| =========                 |                                                 |
| \\      /  F ield         | OpenFOAM: The Open Source CFD Toolbox           |
|  \\    /   O peration     | Version:  2312                                  |
|   \\  /    A nd           | Website:  www.openfoam.com                      |
|    \\/     M anipulation  |                                                 |
\*---------------------------------------------------------------------------*/
FoamFile
{
    version     2.0;
    format      ascii;
    arch        "LSB;label=32;scalar=64";
    class       volScalarField;
    location    "980";
    object      p;
}
// * * * * * * * * * * * * * * * * * * * * * * * * * * * * * * * * * * * * * //

dimensions      [0 2 -2 0 0 0 0];

internalField   nonuniform List<scalar> 
400
(
-1.33072e-11
-1.27785e-06
-3.03144e-06
-4.52713e-06
-6.19943e-06
-7.76356e-06
-9.39353e-06
-1.09829e-05
-1.25981e-05
-1.41954e-05
-1.58073e-05
-1.74042e-05
-1.90204e-05
-2.0608e-05
-2.2241e-05
-2.38004e-05
-2.54805e-05
-2.69637e-05
-2.87346e-05
-2.99807e-05
-9.80739e-09
-1.28667e-06
-3.03406e-06
-4.52808e-06
-6.19946e-06
-7.76366e-06
-9.39349e-06
-1.09829e-05
-1.25981e-05
-1.41955e-05
-1.58073e-05
-1.74043e-05
-1.90204e-05
-2.06081e-05
-2.22409e-05
-2.38003e-05
-2.54794e-05
-2.69609e-05
-2.87251e-05
-2.99707e-05
-9.38588e-09
-1.28801e-06
-3.03774e-06
-4.52788e-06
-6.20008e-06
-7.76338e-06
-9.39368e-06
-1.09828e-05
-1.25981e-05
-1.41954e-05
-1.58074e-05
-1.74042e-05
-1.90205e-05
-2.06079e-05
-2.22412e-05
-2.37996e-05
-2.54796e-05
-2.69569e-05
-2.87237e-05
-2.99708e-05
-7.16008e-10
-1.27891e-06
-3.04024e-06
-4.52712e-06
-6.20069e-06
-7.76307e-06
-9.39387e-06
-1.09827e-05
-1.25982e-05
-1.41953e-05
-1.58074e-05
-1.74041e-05
-1.90207e-05
-2.06076e-05
-2.22415e-05
-2.37989e-05
-2.54804e-05
-2.69541e-05
-2.87331e-05
-2.99792e-05
1.15122e-08
-1.26365e-06
-3.04159e-06
-4.52612e-06
-6.20116e-06
-7.76281e-06
-9.39403e-06
-1.09826e-05
-1.25983e-05
-1.41953e-05
-1.58075e-05
-1.7404e-05
-1.90208e-05
-2.06074e-05
-2.22418e-05
-2.37983e-05
-2.54815e-05
-2.69525e-05
-2.8749e-05
-2.99913e-05
2.45712e-08
-1.24607e-06
-3.04216e-06
-4.52499e-06
-6.20151e-06
-7.76258e-06
-9.39416e-06
-1.09825e-05
-1.25984e-05
-1.41952e-05
-1.58075e-05
-1.74039e-05
-1.90209e-05
-2.06073e-05
-2.2242e-05
-2.37979e-05
-2.54827e-05
-2.69518e-05
-2.87674e-05
-3.00043e-05
3.67738e-08
-1.22894e-06
-3.04228e-06
-4.52386e-06
-6.20177e-06
-7.76238e-06
-9.39426e-06
-1.09824e-05
-1.25984e-05
-1.41952e-05
-1.58076e-05
-1.74039e-05
-1.90209e-05
-2.06072e-05
-2.22423e-05
-2.37976e-05
-2.54839e-05
-2.69515e-05
-2.87856e-05
-3.00164e-05
4.68607e-08
-1.21445e-06
-3.04215e-06
-4.52288e-06
-6.20194e-06
-7.76222e-06
-9.39434e-06
-1.09824e-05
-1.25984e-05
-1.41952e-05
-1.58076e-05
-1.74038e-05
-1.9021e-05
-2.06071e-05
-2.22424e-05
-2.37974e-05
-2.54851e-05
-2.69516e-05
-2.88013e-05
-3.00264e-05
5.39119e-08
-1.20426e-06
-3.04197e-06
-4.52218e-06
-6.20204e-06
-7.76212e-06
-9.39438e-06
-1.09823e-05
-1.25985e-05
-1.41951e-05
-1.58076e-05
-1.74038e-05
-1.9021e-05
-2.0607e-05
-2.22426e-05
-2.37972e-05
-2.54859e-05
-2.69517e-05
-2.88127e-05
-3.00333e-05
5.73497e-08
-1.19948e-06
-3.04186e-06
-4.52186e-06
-6.20208e-06
-7.76206e-06
-9.3944e-06
-1.09823e-05
-1.25985e-05
-1.41951e-05
-1.58076e-05
-1.74038e-05
-1.90211e-05
-2.0607e-05
-2.22426e-05
-2.37972e-05
-2.54863e-05
-2.69518e-05
-2.88185e-05
-3.00365e-05
5.69157e-08
-1.20061e-06
-3.04189e-06
-4.52195e-06
-6.20206e-06
-7.76206e-06
-9.3944e-06
-1.09823e-05
-1.25985e-05
-1.41951e-05
-1.58076e-05
-1.74038e-05
-1.90211e-05
-2.0607e-05
-2.22426e-05
-2.37972e-05
-2.54864e-05
-2.69518e-05
-2.88184e-05
-3.00357e-05
5.26567e-08
-1.20758e-06
-3.04203e-06
-4.52245e-06
-6.20197e-06
-7.76212e-06
-9.39436e-06
-1.09823e-05
-1.25984e-05
-1.41951e-05
-1.58076e-05
-1.74038e-05
-1.9021e-05
-2.0607e-05
-2.22426e-05
-2.37973e-05
-2.54859e-05
-2.69517e-05
-2.88121e-05
-3.00309e-05
4.4919e-08
-1.21969e-06
-3.0422e-06
-4.52328e-06
-6.20182e-06
-7.76222e-06
-9.3943e-06
-1.09823e-05
-1.25984e-05
-1.41952e-05
-1.58076e-05
-1.74038e-05
-1.9021e-05
-2.06071e-05
-2.22425e-05
-2.37974e-05
-2.54852e-05
-2.69515e-05
-2.88005e-05
-3.00225e-05
3.43628e-08
-1.23568e-06
-3.04225e-06
-4.52435e-06
-6.20159e-06
-7.76237e-06
-9.39421e-06
-1.09824e-05
-1.25984e-05
-1.41952e-05
-1.58076e-05
-1.74039e-05
-1.90209e-05
-2.06072e-05
-2.22423e-05
-2.37976e-05
-2.54841e-05
-2.69514e-05
-2.87848e-05
-3.00111e-05
2.19737e-08
-1.25377e-06
-3.04196e-06
-4.52549e-06
-6.20126e-06
-7.76255e-06
-9.3941e-06
-1.09825e-05
-1.25983e-05
-1.41952e-05
-1.58075e-05
-1.74039e-05
-1.90209e-05
-2.06073e-05
-2.22421e-05
-2.3798e-05
-2.54829e-05
-2.69517e-05
-2.87666e-05
-2.99977e-05
9.05818e-09
-1.2717e-06
-3.0411e-06
-4.52656e-06
-6.20083e-06
-7.76276e-06
-9.39395e-06
-1.09825e-05
-1.25983e-05
-1.41953e-05
-1.58075e-05
-1.7404e-05
-1.90208e-05
-2.06075e-05
-2.22419e-05
-2.37984e-05
-2.54818e-05
-2.69525e-05
-2.87484e-05
-2.99836e-05
-2.67512e-09
-1.28667e-06
-3.03936e-06
-4.5274e-06
-6.20027e-06
-7.763e-06
-9.39378e-06
-1.09826e-05
-1.25982e-05
-1.41953e-05
-1.58074e-05
-1.74041e-05
-1.90207e-05
-2.06076e-05
-2.22416e-05
-2.3799e-05
-2.54808e-05
-2.69542e-05
-2.8733e-05
-2.99706e-05
-1.04842e-08
-1.29486e-06
-3.03634e-06
-4.52791e-06
-6.19955e-06
-7.76327e-06
-9.39357e-06
-1.09828e-05
-1.25981e-05
-1.41954e-05
-1.58074e-05
-1.74042e-05
-1.90205e-05
-2.06079e-05
-2.22413e-05
-2.37997e-05
-2.54801e-05
-2.69572e-05
-2.87243e-05
-2.99615e-05
-9.68917e-09
-1.29207e-06
-3.03202e-06
-4.52778e-06
-6.19881e-06
-7.7635e-06
-9.39338e-06
-1.09829e-05
-1.2598e-05
-1.41955e-05
-1.58073e-05
-1.74042e-05
-1.90204e-05
-2.06081e-05
-2.2241e-05
-2.38005e-05
-2.548e-05
-2.69615e-05
-2.87267e-05
-2.99609e-05
1.37864e-09
-1.28174e-06
-3.02871e-06
-4.52651e-06
-6.19867e-06
-7.76337e-06
-9.39341e-06
-1.09829e-05
-1.25981e-05
-1.41954e-05
-1.58073e-05
-1.74042e-05
-1.90204e-05
-2.0608e-05
-2.22411e-05
-2.38006e-05
-2.54812e-05
-2.69646e-05
-2.87371e-05
-2.99705e-05
)
;

boundaryField
{
    inlet
    {
        type            zeroGradient;
    }
    outlet
    {
        type            zeroGradient;
    }
    walls
    {
        type            zeroGradient;
    }
    movingWall
    {
        type            zeroGradient;
    }
    frontAndBack
    {
        type            empty;
    }
}


// ************************************************************************* //
