/*--------------------------------*- C++ -*----------------------------------*\
| =========                 |                                                 |
| \\      /  F ield         | OpenFOAM: The Open Source CFD Toolbox           |
|  \\    /   O peration     | Version:  2312                                  |
|   \\  /    A nd           | Website:  www.openfoam.com                      |
|    \\/     M anipulation  |                                                 |
\*---------------------------------------------------------------------------*/
FoamFile
{
    version     2.0;
    format      ascii;
    arch        "LSB;label=32;scalar=64";
    class       surfaceScalarField;
    location    "980";
    object      phi;
}
// * * * * * * * * * * * * * * * * * * * * * * * * * * * * * * * * * * * * * //

dimensions      [0 3 -1 0 0 0 0];

oriented        oriented;

internalField   nonuniform List<scalar> 
760
(
0.000124998
-4.78802e-12
0.000124998
-3.82943e-12
0.000124998
-9.73125e-14
0.000124998
-4.09346e-13
0.000124998
1.45802e-13
0.000124998
-1.03127e-13
0.000124998
6.09526e-14
0.000124998
-3.92151e-14
0.000124998
2.6795e-14
0.000124998
-2.19698e-14
0.000124998
2.25706e-14
0.000124998
-2.90544e-14
0.000124998
4.34724e-14
0.000124998
-6.78537e-14
0.000124998
1.17407e-13
0.000124998
-1.59929e-13
0.000124998
4.60391e-13
0.000124998
8.23274e-14
0.000124998
4.02951e-12
4.76785e-12
0.000374994
-1.26151e-11
0.000374994
-1.10909e-11
0.000374994
-9.19278e-13
0.000374994
-1.01524e-12
0.000374994
2.52432e-13
0.000374994
-2.07652e-13
0.000374994
1.18051e-13
0.000374994
-7.68368e-14
0.000374994
5.20689e-14
0.000374994
-4.29647e-14
0.000374994
4.40527e-14
0.000374994
-5.6621e-14
0.000374994
8.54384e-14
0.000374994
-1.30763e-13
0.000374994
2.4028e-13
0.000374994
-2.70027e-13
0.000374994
1.14975e-12
0.000374994
9.43647e-13
0.000374994
1.16668e-11
1.26125e-11
0.00062499
-1.99922e-11
0.00062499
-1.87008e-11
0.00062499
-2.21797e-12
0.00062499
-1.57218e-12
0.00062499
2.5882e-13
0.00062499
-2.64001e-13
0.00062499
1.43086e-13
0.00062499
-9.45642e-14
0.00062499
6.33405e-14
0.00062499
-5.27688e-14
0.00062499
5.39508e-14
0.00062499
-6.91323e-14
0.00062499
1.05663e-13
0.00062499
-1.57089e-13
0.00062499
3.12718e-13
0.00062499
-2.61743e-13
0.00062499
1.79912e-12
0.00062499
2.34212e-12
0.00062499
1.97114e-11
2.00402e-11
0.000874986
-2.52537e-11
0.000874986
-2.45526e-11
0.000874986
-3.4687e-12
0.000874986
-1.98587e-12
0.000874986
2.14825e-13
0.000874986
-2.83736e-13
0.000874986
1.47076e-13
0.000874986
-9.87471e-14
0.000874986
6.52042e-14
0.000874986
-5.50119e-14
0.000874986
5.60311e-14
0.000874986
-7.14886e-14
0.000874986
1.11131e-13
0.000874986
-1.59121e-13
0.000874986
3.47085e-13
0.000874986
-1.90436e-13
0.000874986
2.30887e-12
0.000874986
3.72797e-12
0.000874986
2.5993e-11
2.53452e-11
0.00112498
-2.74796e-11
0.00112498
-2.73947e-11
0.00112498
-4.26885e-12
0.00112498
-2.16558e-12
0.00112498
1.60417e-13
0.00112498
-2.72299e-13
0.00112498
1.3742e-13
0.00112498
-9.33535e-14
0.00112498
6.06073e-14
0.00112498
-5.20137e-14
0.00112498
5.27074e-14
0.00112498
-6.68227e-14
0.00112498
1.06164e-13
0.00112498
-1.45265e-13
0.00112498
3.48684e-13
0.00112498
-1.01059e-13
0.00112498
2.58126e-12
0.00112498
4.67678e-12
0.00112498
2.92071e-11
2.75733e-11
0.00137498
-2.63548e-11
0.00137498
-2.66936e-11
0.00137498
-4.37155e-12
0.00137498
-2.05292e-12
0.00137498
1.24483e-13
0.00137498
-2.33251e-13
0.00137498
1.19442e-13
0.00137498
-8.11585e-14
0.00137498
5.16553e-14
0.00137498
-4.53909e-14
0.00137498
4.5663e-14
0.00137498
-5.73946e-14
0.00137498
9.3733e-14
0.00137498
-1.21708e-13
0.00137498
3.20543e-13
0.00137498
-2.69931e-14
0.00137498
2.5508e-12
0.00137498
4.92361e-12
0.00137498
2.87803e-11
2.63843e-11
0.00162498
-2.2045e-11
0.00162498
-2.25079e-11
0.00162498
-3.6937e-12
0.00162498
-1.63529e-12
0.00162498
1.22555e-13
0.00162498
-1.70477e-13
0.00162498
9.67122e-14
0.00162498
-6.4184e-14
0.00162498
3.98349e-14
0.00162498
-3.63083e-14
0.00162498
3.6115e-14
0.00162498
-4.47944e-14
0.00162498
7.59625e-14
0.00162498
-9.27824e-14
0.00162498
2.65774e-13
0.00162498
1.21651e-14
0.00162498
2.19837e-12
0.00162498
4.37093e-12
0.00162498
2.47446e-11
2.1928e-11
0.00187497
-1.50839e-11
0.00187497
-1.53628e-11
0.00187497
-2.30359e-12
0.00187497
-9.48182e-13
0.00187497
1.56713e-13
0.00187497
-8.91099e-14
0.00187497
7.14095e-14
0.00187497
-4.39724e-14
0.00187497
2.62248e-14
0.00187497
-2.55909e-14
0.00187497
2.49226e-14
0.00187497
-3.01987e-14
0.00187497
5.44407e-14
0.00187497
-6.12993e-14
0.00187497
1.88765e-13
0.00187497
1.09896e-14
0.00187497
1.55429e-12
0.00187497
3.07668e-12
0.00187497
1.76126e-11
1.47334e-11
0.00212497
-6.271e-12
0.00212497
-6.12799e-12
0.00212497
-3.94073e-13
0.00212497
-6.991e-14
0.00212497
2.17106e-13
0.00212497
3.96023e-15
0.00212497
4.45867e-14
0.00212497
-2.17923e-14
0.00212497
1.15938e-14
0.00212497
-1.38685e-14
0.00212497
1.27446e-14
0.00212497
-1.44371e-14
0.00212497
3.04635e-14
0.00212497
-2.88186e-14
0.00212497
9.57708e-14
0.00212497
-2.33829e-14
0.00212497
6.93204e-13
0.00212497
1.22715e-12
0.00212497
8.25444e-12
5.60623e-12
0.00237497
3.42562e-12
0.00237497
4.10493e-12
0.00237497
1.75597e-12
0.00237497
8.90566e-13
0.00237497
2.85587e-13
0.00237497
1.00595e-13
0.00237497
1.66307e-14
0.00237497
1.24426e-15
0.00237497
-3.44227e-15
0.00237497
-1.63559e-15
0.00237497
9.32447e-17
0.00237497
1.80826e-15
0.00237497
5.18256e-15
0.00237497
3.90145e-15
0.00237497
-5.39372e-15
0.00237497
-7.4628e-14
0.00237497
-2.7761e-13
0.00237497
-9.01489e-13
0.00237497
-2.22471e-12
-4.46752e-12
0.00262497
1.29614e-11
0.00262497
1.41423e-11
0.00262497
3.82622e-12
0.00262497
1.80957e-12
0.00262497
3.40086e-13
0.00262497
1.92044e-13
0.00262497
-1.23916e-14
0.00262497
2.4105e-14
0.00262497
-1.83733e-14
0.00262497
1.06543e-14
0.00262497
-1.25594e-14
0.00262497
1.79894e-14
0.00262497
-2.02989e-14
0.00262497
3.65643e-14
0.00262497
-1.05983e-13
0.00262497
-1.2174e-13
0.00262497
-1.23419e-12
0.00262497
-2.98831e-12
0.00262497
-1.26063e-11
-1.44155e-11
0.00287497
2.13064e-11
0.00287497
2.28082e-11
0.00287497
5.50329e-12
0.00287497
2.56713e-12
0.00287497
3.59976e-13
0.00287497
2.70175e-13
0.00287497
-4.224e-14
0.00287497
4.57888e-14
0.00287497
-3.26639e-14
0.00287497
2.25604e-14
0.00287497
-2.4762e-14
0.00287497
3.35181e-14
0.00287497
-4.48682e-14
0.00287497
6.88236e-14
0.00287497
-1.97403e-13
0.00287497
-1.44212e-13
0.00287497
-2.05414e-12
0.00287497
-4.71619e-12
0.00287497
-2.16795e-11
-2.31709e-11
0.00312497
2.75338e-11
0.00312497
2.9062e-11
0.00312497
6.52803e-12
0.00312497
3.06475e-12
0.00312497
3.30917e-13
0.00312497
3.28297e-13
0.00312497
-7.21448e-14
0.00312497
6.52898e-14
0.00312497
-4.57283e-14
0.00312497
3.3562e-14
0.00312497
-3.59752e-14
0.00312497
4.77753e-14
0.00312497
-6.73456e-14
0.00312497
9.99143e-14
0.00312497
-2.72098e-13
0.00312497
-1.27089e-13
0.00312497
-2.63447e-12
0.00312497
-5.81977e-12
0.00312497
-2.83622e-11
-2.97636e-11
0.00337498
3.09106e-11
0.00337498
3.21158e-11
0.00337498
6.73936e-12
0.00337498
3.24102e-12
0.00337498
2.49293e-13
0.00337498
3.62002e-13
0.00337498
-1.00409e-13
0.00337498
8.14757e-14
0.00337498
-5.67835e-14
0.00337498
4.30372e-14
0.00337498
-4.55634e-14
0.00337498
5.9908e-14
0.00337498
-8.63792e-14
0.00337498
1.28205e-13
0.00337498
-3.24298e-13
0.00337498
-6.53594e-14
0.00337498
-2.90728e-12
0.00337498
-6.12998e-12
0.00337498
-3.18214e-11
-3.34134e-11
0.00362498
3.0989e-11
0.00362498
3.15497e-11
0.00362498
6.11003e-12
0.00362498
3.08217e-12
0.00362498
1.24902e-13
0.00362498
3.69087e-13
0.00362498
-1.24132e-13
0.00362498
9.29855e-14
0.00362498
-6.48085e-14
0.00362498
5.01101e-14
0.00362498
-5.26339e-14
0.00362498
6.88238e-14
0.00362498
-1.00304e-13
0.00362498
1.50871e-13
0.00362498
-3.50072e-13
0.00362498
3.29951e-14
0.00362498
-2.85054e-12
0.00362498
-5.61073e-12
0.00362498
-3.15927e-11
-3.3625e-11
0.00387498
2.77023e-11
0.00387498
2.74275e-11
0.00387498
4.77103e-12
0.00387498
2.62613e-12
0.00387498
-1.78855e-14
0.00387498
3.4906e-13
0.00387498
-1.38997e-13
0.00387498
9.7922e-14
0.00387498
-6.83382e-14
0.00387498
5.36141e-14
0.00387498
-5.59981e-14
0.00387498
7.29245e-14
0.00387498
-1.06874e-13
0.00387498
1.63577e-13
0.00387498
-3.46764e-13
0.00387498
1.45683e-13
0.00387498
-2.49236e-12
0.00387498
-4.38451e-12
0.00387498
-2.7701e-11
-3.0288e-11
0.00412499
2.14694e-11
0.00412499
2.04104e-11
0.00412499
3.01979e-12
0.00412499
1.95805e-12
0.00412499
-1.41458e-13
0.00412499
3.01547e-13
0.00412499
-1.39075e-13
0.00412499
9.36297e-14
0.00412499
-6.53917e-14
0.00412499
5.18556e-14
0.00412499
-5.3931e-14
0.00412499
7.00546e-14
0.00412499
-1.02988e-13
0.00412499
1.60203e-13
0.00412499
-3.11586e-13
0.00412499
2.36861e-13
0.00412499
-1.90676e-12
0.00412499
-2.74226e-12
0.00412499
-2.07812e-11
-2.37852e-11
0.00437499
1.33095e-11
0.00437499
1.18722e-11
0.00437499
1.30856e-12
0.00437499
1.195e-12
0.00437499
-1.97922e-13
0.00437499
2.23981e-13
0.00437499
-1.16628e-13
0.00437499
7.61149e-14
0.00437499
-5.31224e-14
0.00437499
4.24878e-14
0.00437499
-4.40411e-14
0.00437499
5.70932e-14
0.00437499
-8.41374e-14
0.00437499
1.32494e-13
0.00437499
-2.39233e-13
0.00437499
2.59691e-13
0.00437499
-1.19872e-12
0.00437499
-1.13388e-12
0.00437499
-1.21996e-11
-1.5113e-11
0.00462499
4.97069e-12
0.00462499
4.02142e-12
0.00462499
2.05651e-13
0.00462499
4.55122e-13
0.00462499
-1.31634e-13
0.00462499
1.06776e-13
0.00462499
-6.07256e-14
0.00462499
3.89107e-14
0.00462499
-2.71108e-14
0.00462499
2.18145e-14
0.00462499
-2.2558e-14
0.00462499
2.92078e-14
0.00462499
-4.31281e-14
0.00462499
6.84194e-14
0.00462499
-1.16957e-13
0.00462499
1.57792e-13
0.00462499
-4.72743e-13
0.00462499
-1.33155e-13
0.00462499
-4.18484e-12
-6.01535e-12
0.004875
0.004875
0.004875
0.004875
0.004875
0.004875
0.004875
0.004875
0.004875
0.004875
0.004875
0.004875
0.004875
0.004875
0.004875
0.004875
0.004875
0.004875
0.004875
)
;

boundaryField
{
    inlet
    {
        type            calculated;
        value           nonuniform List<scalar> 
20
(
-0.000124998
-0.000374994
-0.000624989
-0.000874986
-0.00112498
-0.00137498
-0.00162498
-0.00187497
-0.00212497
-0.00237497
-0.00262497
-0.00287497
-0.00312497
-0.00337498
-0.00362498
-0.00387498
-0.00412499
-0.00437499
-0.00462499
-0.004875
)
;
    }
    outlet
    {
        type            calculated;
        value           nonuniform List<scalar> 
20
(
0.000124998
0.000374994
0.000624989
0.000874986
0.00112498
0.00137498
0.00162498
0.00187497
0.00212497
0.00237497
0.00262497
0.00287497
0.00312497
0.00337498
0.00362498
0.00387498
0.00412499
0.00437499
0.00462499
0.004875
)
;
    }
    walls
    {
        type            calculated;
        value           uniform 0;
    }
    movingWall
    {
        type            calculated;
        value           uniform 0;
    }
    frontAndBack
    {
        type            empty;
        value           nonuniform List<scalar> 0();
    }
}


// ************************************************************************* //
