/*--------------------------------*- C++ -*----------------------------------*\
| =========                 |                                                 |
| \\      /  F ield         | OpenFOAM: The Open Source CFD Toolbox           |
|  \\    /   O peration     | Version:  2312                                  |
|   \\  /    A nd           | Website:  www.openfoam.com                      |
|    \\/     M anipulation  |                                                 |
\*---------------------------------------------------------------------------*/
FoamFile
{
    version     2.0;
    format      ascii;
    arch        "LSB;label=32;scalar=64";
    class       volVectorField;
    location    "980";
    object      U;
}
// * * * * * * * * * * * * * * * * * * * * * * * * * * * * * * * * * * * * * //

dimensions      [0 1 -1 0 0 0 0];

internalField   nonuniform List<vector> 
400
(
(0.0249996 -6.72312e-11 0)
(0.0249996 -3.80528e-11 0)
(0.0249996 7.03423e-12 0)
(0.0249996 -7.76236e-12 0)
(0.0249996 4.11551e-12 0)
(0.0249996 -2.5852e-12 0)
(0.0249996 1.5801e-12 0)
(0.0249996 -1.00757e-12 0)
(0.0249996 6.93474e-13 0)
(0.0249996 -5.65207e-13 0)
(0.0249996 5.8172e-13 0)
(0.0249996 -7.49641e-13 0)
(0.0249996 1.11431e-12 0)
(0.0249996 -1.76394e-12 0)
(0.0249996 2.90085e-12 0)
(0.0249996 -4.58338e-12 0)
(0.0249996 8.66982e-12 0)
(0.0249996 -8.03265e-12 0)
(0.0249996 4.07496e-11 0)
(0.0249996 6.6429e-11 0)
(0.0749987 -3.43483e-10 0)
(0.0749987 -2.89928e-10 0)
(0.0749987 -1.57434e-11 0)
(0.0749987 -2.79056e-11 0)
(0.0749987 8.5094e-12 0)
(0.0749987 -6.37725e-12 0)
(0.0749987 3.71058e-12 0)
(0.0749987 -2.39775e-12 0)
(0.0749987 1.63313e-12 0)
(0.0749987 -1.34222e-12 0)
(0.0749987 1.37789e-12 0)
(0.0749987 -1.77313e-12 0)
(0.0749987 2.66064e-12 0)
(0.0749987 -4.12564e-12 0)
(0.0749987 7.30202e-12 0)
(0.0749987 -9.26611e-12 0)
(0.0749987 3.1434e-11 0)
(0.0749987 1.54518e-11 0)
(0.0749987 3.04614e-10 0)
(0.0749987 3.4274e-10 0)
(0.124998 -6.62403e-10 0)
(0.124998 -6.02132e-10 0)
(0.124998 -6.10228e-11 0)
(0.124998 -5.23128e-11 0)
(0.124998 1.07595e-11 0)
(0.124998 -9.71714e-12 0)
(0.124998 5.40278e-12 0)
(0.124998 -3.54064e-12 0)
(0.124998 2.38765e-12 0)
(0.124998 -1.97782e-12 0)
(0.124998 2.02558e-12 0)
(0.124998 -2.60057e-12 0)
(0.124998 3.94407e-12 0)
(0.124998 -5.96653e-12 0)
(0.124998 1.1345e-11 0)
(0.124998 -1.13011e-11 0)
(0.124998 5.94312e-11 0)
(0.124998 6.35636e-11 0)
(0.124998 6.33499e-10 0)
(0.124998 6.63214e-10 0)
(0.174997 -9.30121e-10 0)
(0.174997 -8.87949e-10 0)
(0.174997 -1.16081e-10 0)
(0.174997 -7.30639e-11 0)
(0.174997 9.80512e-12 0)
(0.174997 -1.13109e-11 0)
(0.174997 5.98694e-12 0)
(0.174997 -3.98856e-12 0)
(0.174997 2.65489e-12 0)
(0.174997 -2.22337e-12 0)
(0.174997 2.26964e-12 0)
(0.174997 -2.90334e-12 0)
(0.174997 4.46918e-12 0)
(0.174997 -6.53703e-12 0)
(0.174997 1.35682e-11 0)
(0.174997 -9.48397e-12 0)
(0.174997 8.40599e-11 0)
(0.174997 1.23484e-10 0)
(0.174997 9.37271e-10 0)
(0.174997 9.33118e-10 0)
(0.224996 -1.08718e-09 0)
(0.224996 -1.07187e-09 0)
(0.224996 -1.60552e-10 0)
(0.224996 -8.57426e-11 0)
(0.224996 7.48667e-12 0)
(0.224996 -1.14373e-11 0)
(0.224996 5.8116e-12 0)
(0.224996 -3.93202e-12 0)
(0.224996 2.57582e-12 0)
(0.224996 -2.18934e-12 0)
(0.224996 2.22503e-12 0)
(0.224996 -2.83114e-12 0)
(0.224996 4.44431e-12 0)
(0.224996 -6.22934e-12 0)
(0.224996 1.42524e-11 0)
(0.224996 -5.8717e-12 0)
(0.224996 1.00591e-10 0)
(0.224996 1.73837e-10 0)
(0.224996 1.13773e-09 0)
(0.224996 1.09141e-09 0)
(0.274996 -1.11009e-09 0)
(0.274996 -1.11741e-09 0)
(0.274996 -1.80378e-10 0)
(0.274996 -8.74308e-11 0)
(0.274996 5.43248e-12 0)
(0.274996 -1.03796e-11 0)
(0.274996 5.20684e-12 0)
(0.274996 -3.55167e-12 0)
(0.274996 2.28364e-12 0)
(0.274996 -1.98041e-12 0)
(0.274996 2.00048e-12 0)
(0.274996 -2.52652e-12 0)
(0.274996 4.0658e-12 0)
(0.274996 -5.41996e-12 0)
(0.274996 1.36791e-11 0)
(0.274996 -2.30987e-12 0)
(0.274996 1.05843e-10 0)
(0.274996 1.9969e-10 0)
(0.274996 1.19653e-09 0)
(0.274996 1.11329e-09 0)
(0.324995 -9.97815e-10 0)
(0.324995 -1.01673e-09 0)
(0.324995 -1.68952e-10 0)
(0.324995 -7.67051e-11 0)
(0.324995 4.58118e-12 0)
(0.324995 -8.29539e-12 0)
(0.324995 4.362e-12 0)
(0.324995 -2.9493e-12 0)
(0.324995 1.85454e-12 0)
(0.324995 -1.6557e-12 0)
(0.324995 1.65757e-12 0)
(0.324995 -2.07123e-12 0)
(0.324995 3.44195e-12 0)
(0.324995 -4.33241e-12 0)
(0.324995 1.19806e-11 0)
(0.324995 8.6601e-14 0)
(0.324995 9.81242e-11 0)
(0.324995 1.93775e-10 0)
(0.324995 1.10455e-09 0)
(0.324995 9.96906e-10 0)
(0.374995 -7.65599e-10 0)
(0.374995 -7.83045e-10 0)
(0.374995 -1.2625e-10 0)
(0.374995 -5.40304e-11 0)
(0.374995 5.26554e-12 0)
(0.374995 -5.3511e-12 0)
(0.374995 3.38475e-12 0)
(0.374995 -2.19116e-12 0)
(0.374995 1.33644e-12 0)
(0.374995 -1.25222e-12 0)
(0.374995 1.23497e-12 0)
(0.374995 -1.51702e-12 0)
(0.374995 2.6413e-12 0)
(0.374995 -3.10181e-12 0)
(0.374995 9.29053e-12 0)
(0.374995 8.37186e-13 0)
(0.374995 7.76588e-11 0)
(0.374995 1.55579e-10 0)
(0.374995 8.74186e-10 0)
(0.374995 7.57078e-10 0)
(0.424995 -4.41095e-10 0)
(0.424995 -4.45496e-10 0)
(0.424995 -5.78451e-11 0)
(0.424995 -2.17656e-11 0)
(0.424995 7.29913e-12 0)
(0.424995 -1.78448e-12 0)
(0.424995 2.33434e-12 0)
(0.424995 -1.33076e-12 0)
(0.424995 7.64264e-13 0)
(0.424995 -7.97462e-13 0)
(0.424995 7.61359e-13 0)
(0.424995 -9.01864e-13 0)
(0.424995 1.71838e-12 0)
(0.424995 -1.81009e-12 0)
(0.424995 5.81737e-12 0)
(0.424995 6.85196e-15 0)
(0.424995 4.66251e-11 0)
(0.424995 9.03382e-11 0)
(0.424995 5.3436e-10 0)
(0.424995 4.21493e-10 0)
(0.474995 -6.06153e-11 0)
(0.474995 -4.45289e-11 0)
(0.474995 2.64063e-11 0)
(0.474995 1.62e-11 0)
(0.474995 1.00814e-11 0)
(0.474995 2.09765e-12 0)
(0.474995 1.23563e-12 0)
(0.474995 -4.14804e-13 0)
(0.474995 1.64739e-13 0)
(0.474995 -3.13172e-13 0)
(0.474995 2.5938e-13 0)
(0.474995 -2.54985e-13 0)
(0.474995 7.21013e-13 0)
(0.474995 -4.9975e-13 0)
(0.474995 1.84765e-12 0)
(0.474995 -1.89521e-12 0)
(0.474995 8.80324e-12 0)
(0.474995 7.72604e-12 0)
(0.474995 1.25806e-10 0)
(0.474995 2.69514e-11 0)
(0.524995 3.34644e-10 0)
(0.524995 3.72924e-10 0)
(0.524995 1.14048e-10 0)
(0.524995 5.5037e-11 0)
(0.524995 1.27584e-11 0)
(0.524995 5.94749e-12 0)
(0.524995 9.35868e-14 0)
(0.524995 5.14181e-13 0)
(0.524995 -4.40379e-13 0)
(0.524995 1.82228e-13 0)
(0.524995 -2.51824e-13 0)
(0.524995 3.99825e-13 0)
(0.524995 -3.06284e-13 0)
(0.524995 8.12217e-13 0)
(0.524995 -2.27808e-12 0)
(0.524995 -4.07334e-12 0)
(0.524995 -3.10062e-11 0)
(0.524995 -7.98401e-11 0)
(0.524995 -3.03758e-10 0)
(0.524995 -3.84427e-10 0)
(0.574995 7.02262e-10 0)
(0.574995 7.58251e-10 0)
(0.574995 1.91918e-10 0)
(0.574995 8.96867e-11 0)
(0.574995 1.44243e-11 0)
(0.574995 9.41661e-12 0)
(0.574995 -1.08978e-12 0)
(0.574995 1.41597e-12 0)
(0.574995 -1.03096e-12 0)
(0.574995 6.71391e-13 0)
(0.574995 -7.54332e-13 0)
(0.574995 1.04067e-12 0)
(0.574995 -1.31971e-12 0)
(0.574995 2.11724e-12 0)
(0.574995 -6.20267e-12 0)
(0.574995 -5.64508e-12 0)
(0.574995 -6.76904e-11 0)
(0.574995 -1.59107e-10 0)
(0.574995 -7.04503e-10 0)
(0.574995 -7.68907e-10 0)
(0.624995 1.00218e-09 0)
(0.624995 1.06592e-09 0)
(0.624995 2.48104e-10 0)
(0.624995 1.15608e-10 0)
(0.624995 1.43324e-11 0)
(0.624995 1.21995e-11 0)
(0.624995 -2.298e-12 0)
(0.624995 2.25096e-12 0)
(0.624995 -1.58531e-12 0)
(0.624995 1.13564e-12 0)
(0.624995 -1.22891e-12 0)
(0.624995 1.64419e-12 0)
(0.624995 -2.27403e-12 0)
(0.624995 3.39713e-12 0)
(0.624995 -9.5942e-12 0)
(0.624995 -5.8534e-12 0)
(0.624995 -9.65694e-11 0)
(0.624995 -2.17956e-10 0)
(0.624995 -1.02934e-09 0)
(0.624995 -1.0848e-09 0)
(0.674995 1.20029e-09 0)
(0.674995 1.25819e-09 0)
(0.674995 2.73798e-10 0)
(0.674995 1.2947e-10 0)
(0.674995 1.20877e-11 0)
(0.674995 1.407e-11 0)
(0.674995 -3.48489e-12 0)
(0.674995 2.97754e-12 0)
(0.674995 -2.07696e-12 0)
(0.674995 1.55282e-12 0)
(0.674995 -1.65276e-12 0)
(0.674995 2.18199e-12 0)
(0.674995 -3.11976e-12 0)
(0.674995 4.60759e-12 0)
(0.674995 -1.21818e-11 0)
(0.674995 -4.26129e-12 0)
(0.674995 -1.14091e-10 0)
(0.674995 -2.47289e-10 0)
(0.674995 -1.23875e-09 0)
(0.674995 -1.29616e-09 0)
(0.724996 1.27203e-09 0)
(0.724996 1.30972e-09 0)
(0.724996 2.6491e-10 0)
(0.724996 1.29699e-10 0)
(0.724996 7.78915e-12 0)
(0.724996 1.49014e-11 0)
(0.724996 -4.56287e-12 0)
(0.724996 3.54884e-12 0)
(0.724996 -2.47178e-12 0)
(0.724996 1.89467e-12 0)
(0.724996 -1.99706e-12 0)
(0.724996 2.61728e-12 0)
(0.724996 -3.79971e-12 0)
(0.724996 5.66481e-12 0)
(0.724996 -1.37769e-11 0)
(0.724996 -9.00567e-13 0)
(0.724996 -1.18385e-10 0)
(0.724996 -2.42665e-10 0)
(0.724996 -1.30556e-09 0)
(0.724996 -1.37649e-09 0)
(0.774996 1.20594e-09 0)
(0.774996 1.21197e-09 0)
(0.774996 2.2327e-10 0)
(0.774996 1.16786e-10 0)
(0.774996 2.10856e-12 0)
(0.774996 1.46567e-11 0)
(0.774996 -5.39351e-12 0)
(0.774996 3.90514e-12 0)
(0.774996 -2.72332e-12 0)
(0.774996 2.12311e-12 0)
(0.774996 -2.22299e-12 0)
(0.774996 2.89986e-12 0)
(0.774996 -4.2415e-12 0)
(0.774996 6.43298e-12 0)
(0.774996 -1.42653e-11 0)
(0.774996 3.63978e-12 0)
(0.774996 -1.09583e-10 0)
(0.774996 -2.05549e-10 0)
(0.774996 -1.2195e-09 0)
(0.774996 -1.31245e-09 0)
(0.824997 1.00717e-09 0)
(0.824997 9.77826e-10 0)
(0.824997 1.57481e-10 0)
(0.824997 9.32113e-11 0)
(0.824997 -3.65656e-12 0)
(0.824997 1.33137e-11 0)
(0.824997 -5.75907e-12 0)
(0.824997 3.94994e-12 0)
(0.824997 -2.75823e-12 0)
(0.824997 2.17745e-12 0)
(0.824997 -2.26872e-12 0)
(0.824997 2.94996e-12 0)
(0.824997 -4.33183e-12 0)
(0.824997 6.68958e-12 0)
(0.824997 -1.35297e-11 0)
(0.824997 8.13831e-12 0)
(0.824997 -8.97362e-11 0)
(0.824997 -1.44244e-10 0)
(0.824997 -9.92068e-10 0)
(0.824997 -1.10759e-09 0)
(0.874998 7.03445e-10 0)
(0.874998 6.49036e-10 0)
(0.874998 8.36695e-11 0)
(0.874998 6.30045e-11 0)
(0.874998 -7.53171e-12 0)
(0.874998 1.07164e-11 0)
(0.874998 -5.30978e-12 0)
(0.874998 3.50482e-12 0)
(0.874998 -2.448e-12 0)
(0.874998 1.95086e-12 0)
(0.874998 -2.02507e-12 0)
(0.874998 2.62742e-12 0)
(0.874998 -3.86774e-12 0)
(0.874998 6.06247e-12 0)
(0.874998 -1.12936e-11 0)
(0.874998 1.0658e-11 0)
(0.874998 -6.23552e-11 0)
(0.874998 -7.4761e-11 0)
(0.874998 -6.64176e-10 0)
(0.874998 -7.8849e-10 0)
(0.924999 3.58346e-10 0)
(0.924999 3.06168e-10 0)
(0.924999 2.4333e-11 0)
(0.924999 3.17146e-11 0)
(0.924999 -7.3647e-12 0)
(0.924999 6.69519e-12 0)
(0.924999 -3.69152e-12 0)
(0.924999 2.37593e-12 0)
(0.924999 -1.658e-12 0)
(0.924999 1.33069e-12 0)
(0.924999 -1.37743e-12 0)
(0.924999 1.78441e-12 0)
(0.924999 -2.63187e-12 0)
(0.924999 4.16882e-12 0)
(0.924999 -7.26743e-12 0)
(0.924999 9.07627e-12 0)
(0.924999 -3.24433e-11 0)
(0.924999 -1.95949e-11 0)
(0.924999 -3.16756e-10 0)
(0.924999 -4.17853e-10 0)
(0.975 6.8368e-11 0)
(0.975 3.8793e-11 0)
(0.975 -6.20902e-12 0)
(0.975 7.93358e-12 0)
(0.975 -4.02712e-12 0)
(0.975 2.58596e-12 0)
(0.975 -1.57945e-12 0)
(0.975 1.00282e-12 0)
(0.975 -6.95601e-13 0)
(0.975 5.63606e-13 0)
(0.975 -5.81488e-13 0)
(0.975 7.51243e-13 0)
(0.975 -1.1129e-12 0)
(0.975 1.76981e-12 0)
(0.975 -2.89647e-12 0)
(0.975 4.58647e-12 0)
(0.975 -8.73496e-12 0)
(0.975 7.80338e-12 0)
(0.975 -4.20807e-11 0)
(0.975 -9.07287e-11 0)
)
;

boundaryField
{
    inlet
    {
        type            zeroGradient;
    }
    outlet
    {
        type            zeroGradient;
    }
    walls
    {
        type            noSlip;
    }
    movingWall
    {
        type            movingWallVelocity;
        value           uniform (1 0 0);
    }
    frontAndBack
    {
        type            empty;
    }
}


// ************************************************************************* //
