/*--------------------------------*- C++ -*----------------------------------*\
| =========                 |                                                 |
| \\      /  F ield         | OpenFOAM: The Open Source CFD Toolbox           |
|  \\    /   O peration     | Version:  2312                                  |
|   \\  /    A nd           | Website:  www.openfoam.com                      |
|    \\/     M anipulation  |                                                 |
\*---------------------------------------------------------------------------*/
FoamFile
{
    version     2.0;
    format      ascii;
    arch        "LSB;label=32;scalar=64";
    class       volVectorField;
    location    "980";
    object      Uerr;
}
// * * * * * * * * * * * * * * * * * * * * * * * * * * * * * * * * * * * * * //

dimensions      [0 1 -1 0 0 0 0];

internalField   nonuniform List<vector> 
400
(
(-4.31911e-07 -6.72312e-11 0)
(-4.30747e-07 -3.80528e-11 0)
(-4.30352e-07 7.03423e-12 0)
(-4.30447e-07 -7.76236e-12 0)
(-4.30348e-07 4.11551e-12 0)
(-4.30403e-07 -2.5852e-12 0)
(-4.30369e-07 1.5801e-12 0)
(-4.30389e-07 -1.00757e-12 0)
(-4.30378e-07 6.93474e-13 0)
(-4.30383e-07 -5.65207e-13 0)
(-4.30383e-07 5.8172e-13 0)
(-4.30378e-07 -7.49641e-13 0)
(-4.3039e-07 1.11431e-12 0)
(-4.30368e-07 -1.76394e-12 0)
(-4.30406e-07 2.90085e-12 0)
(-4.30345e-07 -4.58338e-12 0)
(-4.30456e-07 8.66982e-12 0)
(-4.3035e-07 -8.03265e-12 0)
(-4.30779e-07 4.07496e-11 0)
(-4.31955e-07 6.6429e-11 0)
(-1.28105e-06 -3.43483e-10 0)
(-1.27904e-06 -2.89928e-10 0)
(-1.2781e-06 -1.57434e-11 0)
(-1.27833e-06 -2.79056e-11 0)
(-1.2781e-06 8.5094e-12 0)
(-1.27823e-06 -6.37725e-12 0)
(-1.27815e-06 3.71058e-12 0)
(-1.27819e-06 -2.39775e-12 0)
(-1.27817e-06 1.63313e-12 0)
(-1.27818e-06 -1.34222e-12 0)
(-1.27818e-06 1.37789e-12 0)
(-1.27816e-06 -1.77313e-12 0)
(-1.27819e-06 2.66064e-12 0)
(-1.27814e-06 -4.12564e-12 0)
(-1.27823e-06 7.30202e-12 0)
(-1.27809e-06 -9.26611e-12 0)
(-1.27836e-06 3.1434e-11 0)
(-1.2781e-06 1.54518e-11 0)
(-1.27913e-06 3.04614e-10 0)
(-1.28115e-06 3.4274e-10 0)
(-2.09971e-06 -6.62403e-10 0)
(-2.09788e-06 -6.02132e-10 0)
(-2.09662e-06 -6.10228e-11 0)
(-2.09698e-06 -5.23128e-11 0)
(-2.09664e-06 1.07595e-11 0)
(-2.09683e-06 -9.71714e-12 0)
(-2.09671e-06 5.40278e-12 0)
(-2.09678e-06 -3.54064e-12 0)
(-2.09674e-06 2.38765e-12 0)
(-2.09676e-06 -1.97782e-12 0)
(-2.09676e-06 2.02558e-12 0)
(-2.09674e-06 -2.60057e-12 0)
(-2.09678e-06 3.94407e-12 0)
(-2.09671e-06 -5.96653e-12 0)
(-2.09683e-06 1.1345e-11 0)
(-2.09663e-06 -1.13011e-11 0)
(-2.09701e-06 5.94312e-11 0)
(-2.09662e-06 6.35636e-11 0)
(-2.098e-06 6.33499e-10 0)
(-2.09983e-06 6.63214e-10 0)
(-2.86752e-06 -9.30121e-10 0)
(-2.86653e-06 -8.87949e-10 0)
(-2.86515e-06 -1.16081e-10 0)
(-2.86563e-06 -7.30639e-11 0)
(-2.86523e-06 9.80512e-12 0)
(-2.86546e-06 -1.13109e-11 0)
(-2.86532e-06 5.98694e-12 0)
(-2.8654e-06 -3.98856e-12 0)
(-2.86535e-06 2.65489e-12 0)
(-2.86537e-06 -2.22337e-12 0)
(-2.86537e-06 2.26964e-12 0)
(-2.86535e-06 -2.90334e-12 0)
(-2.8654e-06 4.46918e-12 0)
(-2.86531e-06 -6.53703e-12 0)
(-2.86547e-06 1.35682e-11 0)
(-2.86522e-06 -9.48397e-12 0)
(-2.86567e-06 8.40599e-11 0)
(-2.86514e-06 1.23484e-10 0)
(-2.86667e-06 9.37271e-10 0)
(-2.86764e-06 9.33118e-10 0)
(-3.56534e-06 -1.08718e-09 0)
(-3.56556e-06 -1.07187e-09 0)
(-3.56419e-06 -1.60552e-10 0)
(-3.56482e-06 -8.57426e-11 0)
(-3.56438e-06 7.48667e-12 0)
(-3.56464e-06 -1.14373e-11 0)
(-3.56448e-06 5.8116e-12 0)
(-3.56457e-06 -3.93202e-12 0)
(-3.56452e-06 2.57582e-12 0)
(-3.56454e-06 -2.18934e-12 0)
(-3.56455e-06 2.22503e-12 0)
(-3.56452e-06 -2.83114e-12 0)
(-3.56458e-06 4.44431e-12 0)
(-3.56448e-06 -6.22934e-12 0)
(-3.56465e-06 1.42524e-11 0)
(-3.56437e-06 -5.8717e-12 0)
(-3.56487e-06 1.00591e-10 0)
(-3.56419e-06 1.73837e-10 0)
(-3.56571e-06 1.13773e-09 0)
(-3.56543e-06 1.09141e-09 0)
(-4.17577e-06 -1.11009e-09 0)
(-4.17731e-06 -1.11741e-09 0)
(-4.17606e-06 -1.80378e-10 0)
(-4.17683e-06 -8.74308e-11 0)
(-4.17637e-06 5.43248e-12 0)
(-4.17665e-06 -1.03796e-11 0)
(-4.17648e-06 5.20684e-12 0)
(-4.17658e-06 -3.55167e-12 0)
(-4.17653e-06 2.28364e-12 0)
(-4.17655e-06 -1.98041e-12 0)
(-4.17655e-06 2.00048e-12 0)
(-4.17652e-06 -2.52652e-12 0)
(-4.17659e-06 4.0658e-12 0)
(-4.17648e-06 -5.41996e-12 0)
(-4.17666e-06 1.36791e-11 0)
(-4.17635e-06 -2.30987e-12 0)
(-4.17687e-06 1.05843e-10 0)
(-4.17604e-06 1.9969e-10 0)
(-4.17746e-06 1.19653e-09 0)
(-4.17581e-06 1.11329e-09 0)
(-4.68353e-06 -9.97815e-10 0)
(-4.68634e-06 -1.01673e-09 0)
(-4.68524e-06 -1.68952e-10 0)
(-4.68615e-06 -7.67051e-11 0)
(-4.68568e-06 4.58118e-12 0)
(-4.68598e-06 -8.29539e-12 0)
(-4.68581e-06 4.362e-12 0)
(-4.68591e-06 -2.9493e-12 0)
(-4.68585e-06 1.85454e-12 0)
(-4.68588e-06 -1.6557e-12 0)
(-4.68588e-06 1.65757e-12 0)
(-4.68585e-06 -2.07123e-12 0)
(-4.68591e-06 3.44195e-12 0)
(-4.6858e-06 -4.33241e-12 0)
(-4.68599e-06 1.19806e-11 0)
(-4.68567e-06 8.6601e-14 0)
(-4.6862e-06 9.81242e-11 0)
(-4.68522e-06 1.93775e-10 0)
(-4.68649e-06 1.10455e-09 0)
(-4.68351e-06 9.96906e-10 0)
(-5.07594e-06 -7.65599e-10 0)
(-5.0798e-06 -7.83045e-10 0)
(-5.07885e-06 -1.2625e-10 0)
(-5.07988e-06 -5.40304e-11 0)
(-5.07941e-06 5.26554e-12 0)
(-5.07972e-06 -5.3511e-12 0)
(-5.07955e-06 3.38475e-12 0)
(-5.07965e-06 -2.19116e-12 0)
(-5.07959e-06 1.33644e-12 0)
(-5.07962e-06 -1.25222e-12 0)
(-5.07962e-06 1.23497e-12 0)
(-5.07959e-06 -1.51702e-12 0)
(-5.07966e-06 2.6413e-12 0)
(-5.07954e-06 -3.10181e-12 0)
(-5.07974e-06 9.29053e-12 0)
(-5.07939e-06 8.37186e-13 0)
(-5.07992e-06 7.76588e-11 0)
(-5.07882e-06 1.55579e-10 0)
(-5.07994e-06 8.74186e-10 0)
(-5.07585e-06 7.57078e-10 0)
(-5.34318e-06 -4.41095e-10 0)
(-5.34777e-06 -4.45496e-10 0)
(-5.34694e-06 -5.78451e-11 0)
(-5.34804e-06 -2.17656e-11 0)
(-5.34758e-06 7.29913e-12 0)
(-5.3479e-06 -1.78448e-12 0)
(-5.34772e-06 2.33434e-12 0)
(-5.34782e-06 -1.33076e-12 0)
(-5.34777e-06 7.64264e-13 0)
(-5.34779e-06 -7.97462e-13 0)
(-5.34779e-06 7.61359e-13 0)
(-5.34776e-06 -9.01864e-13 0)
(-5.34783e-06 1.71838e-12 0)
(-5.34771e-06 -1.81009e-12 0)
(-5.34791e-06 5.81737e-12 0)
(-5.34756e-06 6.85196e-15 0)
(-5.34809e-06 4.66251e-11 0)
(-5.34689e-06 9.03382e-11 0)
(-5.34789e-06 5.3436e-10 0)
(-5.34302e-06 4.21493e-10 0)
(-5.47854e-06 -6.06153e-11 0)
(-5.48348e-06 -4.45289e-11 0)
(-5.48271e-06 2.64063e-11 0)
(-5.48385e-06 1.62e-11 0)
(-5.48338e-06 1.00814e-11 0)
(-5.4837e-06 2.09765e-12 0)
(-5.48352e-06 1.23563e-12 0)
(-5.48363e-06 -4.14804e-13 0)
(-5.48357e-06 1.64739e-13 0)
(-5.4836e-06 -3.13172e-13 0)
(-5.4836e-06 2.5938e-13 0)
(-5.48357e-06 -2.54985e-13 0)
(-5.48364e-06 7.21013e-13 0)
(-5.48351e-06 -4.9975e-13 0)
(-5.48372e-06 1.84765e-12 0)
(-5.48336e-06 -1.89521e-12 0)
(-5.48389e-06 8.80324e-12 0)
(-5.48265e-06 7.72604e-12 0)
(-5.48359e-06 1.25806e-10 0)
(-5.47832e-06 2.69514e-11 0)
(-5.47864e-06 3.34644e-10 0)
(-5.48352e-06 3.72924e-10 0)
(-5.48273e-06 1.14048e-10 0)
(-5.48385e-06 5.5037e-11 0)
(-5.48338e-06 1.27584e-11 0)
(-5.4837e-06 5.94749e-12 0)
(-5.48352e-06 9.35868e-14 0)
(-5.48363e-06 5.14181e-13 0)
(-5.48357e-06 -4.40379e-13 0)
(-5.4836e-06 1.82228e-13 0)
(-5.4836e-06 -2.51824e-13 0)
(-5.48357e-06 3.99825e-13 0)
(-5.48364e-06 -3.06284e-13 0)
(-5.48351e-06 8.12217e-13 0)
(-5.48372e-06 -2.27808e-12 0)
(-5.48336e-06 -4.07334e-12 0)
(-5.48389e-06 -3.10062e-11 0)
(-5.48265e-06 -7.98401e-11 0)
(-5.48361e-06 -3.03758e-10 0)
(-5.47836e-06 -3.84427e-10 0)
(-5.34347e-06 7.02262e-10 0)
(-5.34787e-06 7.58251e-10 0)
(-5.34699e-06 1.91918e-10 0)
(-5.34806e-06 8.96867e-11 0)
(-5.34758e-06 1.44243e-11 0)
(-5.3479e-06 9.41661e-12 0)
(-5.34772e-06 -1.08978e-12 0)
(-5.34782e-06 1.41597e-12 0)
(-5.34776e-06 -1.03096e-12 0)
(-5.34779e-06 6.71391e-13 0)
(-5.34779e-06 -7.54332e-13 0)
(-5.34776e-06 1.04067e-12 0)
(-5.34783e-06 -1.31971e-12 0)
(-5.34771e-06 2.11724e-12 0)
(-5.34791e-06 -6.20267e-12 0)
(-5.34756e-06 -5.64508e-12 0)
(-5.34809e-06 -6.76904e-11 0)
(-5.34691e-06 -1.59107e-10 0)
(-5.34795e-06 -7.04503e-10 0)
(-5.34315e-06 -7.68907e-10 0)
(-5.0764e-06 1.00218e-09 0)
(-5.07997e-06 1.06592e-09 0)
(-5.07894e-06 2.48104e-10 0)
(-5.0799e-06 1.15608e-10 0)
(-5.07942e-06 1.43324e-11 0)
(-5.07972e-06 1.21995e-11 0)
(-5.07955e-06 -2.298e-12 0)
(-5.07965e-06 2.25096e-12 0)
(-5.07959e-06 -1.58531e-12 0)
(-5.07962e-06 1.13564e-12 0)
(-5.07962e-06 -1.22891e-12 0)
(-5.07959e-06 1.64419e-12 0)
(-5.07966e-06 -2.27403e-12 0)
(-5.07954e-06 3.39713e-12 0)
(-5.07974e-06 -9.5942e-12 0)
(-5.07939e-06 -5.8534e-12 0)
(-5.07993e-06 -9.65694e-11 0)
(-5.07884e-06 -2.17956e-10 0)
(-5.08002e-06 -1.02934e-09 0)
(-5.07606e-06 -1.0848e-09 0)
(-4.68411e-06 1.20029e-09 0)
(-4.68655e-06 1.25819e-09 0)
(-4.68535e-06 2.73798e-10 0)
(-4.68618e-06 1.2947e-10 0)
(-4.6857e-06 1.20877e-11 0)
(-4.68598e-06 1.407e-11 0)
(-4.68581e-06 -3.48489e-12 0)
(-4.68591e-06 2.97754e-12 0)
(-4.68585e-06 -2.07696e-12 0)
(-4.68588e-06 1.55282e-12 0)
(-4.68588e-06 -1.65276e-12 0)
(-4.68585e-06 2.18199e-12 0)
(-4.68591e-06 -3.11976e-12 0)
(-4.6858e-06 4.60759e-12 0)
(-4.68599e-06 -1.21818e-11 0)
(-4.68567e-06 -4.26129e-12 0)
(-4.6862e-06 -1.14091e-10 0)
(-4.68525e-06 -2.47289e-10 0)
(-4.68659e-06 -1.23875e-09 0)
(-4.68377e-06 -1.29616e-09 0)
(-4.17641e-06 1.27203e-09 0)
(-4.17755e-06 1.30972e-09 0)
(-4.17618e-06 2.6491e-10 0)
(-4.17686e-06 1.29699e-10 0)
(-4.17638e-06 7.78915e-12 0)
(-4.17665e-06 1.49014e-11 0)
(-4.17648e-06 -4.56287e-12 0)
(-4.17658e-06 3.54884e-12 0)
(-4.17653e-06 -2.47178e-12 0)
(-4.17655e-06 1.89467e-12 0)
(-4.17655e-06 -1.99706e-12 0)
(-4.17652e-06 2.61728e-12 0)
(-4.17659e-06 -3.79971e-12 0)
(-4.17648e-06 5.66481e-12 0)
(-4.17666e-06 -1.37769e-11 0)
(-4.17635e-06 -9.00567e-13 0)
(-4.17688e-06 -1.18385e-10 0)
(-4.17608e-06 -2.42665e-10 0)
(-4.17758e-06 -1.30556e-09 0)
(-4.1761e-06 -1.37649e-09 0)
(-3.566e-06 1.20594e-09 0)
(-3.5658e-06 1.21197e-09 0)
(-3.56432e-06 2.2327e-10 0)
(-3.56485e-06 1.16786e-10 0)
(-3.56439e-06 2.10856e-12 0)
(-3.56464e-06 1.46567e-11 0)
(-3.56448e-06 -5.39351e-12 0)
(-3.56457e-06 3.90514e-12 0)
(-3.56452e-06 -2.72332e-12 0)
(-3.56454e-06 2.12311e-12 0)
(-3.56455e-06 -2.22299e-12 0)
(-3.56452e-06 2.89986e-12 0)
(-3.56458e-06 -4.2415e-12 0)
(-3.56448e-06 6.43298e-12 0)
(-3.56465e-06 -1.42653e-11 0)
(-3.56437e-06 3.63978e-12 0)
(-3.56487e-06 -1.09583e-10 0)
(-3.56422e-06 -2.05549e-10 0)
(-3.56583e-06 -1.2195e-09 0)
(-3.56573e-06 -1.31245e-09 0)
(-2.86812e-06 1.00717e-09 0)
(-2.86675e-06 9.77826e-10 0)
(-2.86526e-06 1.57481e-10 0)
(-2.86566e-06 9.32113e-11 0)
(-2.86524e-06 -3.65656e-12 0)
(-2.86546e-06 1.33137e-11 0)
(-2.86532e-06 -5.75907e-12 0)
(-2.8654e-06 3.94994e-12 0)
(-2.86535e-06 -2.75823e-12 0)
(-2.86537e-06 2.17745e-12 0)
(-2.86537e-06 -2.26872e-12 0)
(-2.86535e-06 2.94996e-12 0)
(-2.8654e-06 -4.33183e-12 0)
(-2.86531e-06 6.68958e-12 0)
(-2.86547e-06 -1.35297e-11 0)
(-2.86522e-06 8.13831e-12 0)
(-2.86568e-06 -8.97362e-11 0)
(-2.86517e-06 -1.44244e-10 0)
(-2.86679e-06 -9.92068e-10 0)
(-2.86791e-06 -1.10759e-09 0)
(-2.10019e-06 7.03445e-10 0)
(-2.09806e-06 6.49036e-10 0)
(-2.09672e-06 8.36695e-11 0)
(-2.097e-06 6.30045e-11 0)
(-2.09665e-06 -7.53171e-12 0)
(-2.09683e-06 1.07164e-11 0)
(-2.09671e-06 -5.30978e-12 0)
(-2.09678e-06 3.50482e-12 0)
(-2.09674e-06 -2.448e-12 0)
(-2.09676e-06 1.95086e-12 0)
(-2.09676e-06 -2.02507e-12 0)
(-2.09674e-06 2.62742e-12 0)
(-2.09678e-06 -3.86774e-12 0)
(-2.09671e-06 6.06247e-12 0)
(-2.09683e-06 -1.12936e-11 0)
(-2.09663e-06 1.0658e-11 0)
(-2.09702e-06 -6.23552e-11 0)
(-2.09664e-06 -7.4761e-11 0)
(-2.09809e-06 -6.64176e-10 0)
(-2.10006e-06 -7.8849e-10 0)
(-1.28137e-06 3.58346e-10 0)
(-1.27916e-06 3.06168e-10 0)
(-1.27817e-06 2.4333e-11 0)
(-1.27835e-06 3.17146e-11 0)
(-1.2781e-06 -7.3647e-12 0)
(-1.27823e-06 6.69519e-12 0)
(-1.27815e-06 -3.69152e-12 0)
(-1.27819e-06 2.37593e-12 0)
(-1.27817e-06 -1.658e-12 0)
(-1.27818e-06 1.33069e-12 0)
(-1.27818e-06 -1.37743e-12 0)
(-1.27816e-06 1.78441e-12 0)
(-1.27819e-06 -2.63187e-12 0)
(-1.27814e-06 4.16882e-12 0)
(-1.27823e-06 -7.26743e-12 0)
(-1.27809e-06 9.07627e-12 0)
(-1.27836e-06 -3.24433e-11 0)
(-1.27811e-06 -1.95949e-11 0)
(-1.27919e-06 -3.16756e-10 0)
(-1.2813e-06 -4.17853e-10 0)
(-4.32019e-07 6.8368e-11 0)
(-4.30788e-07 3.8793e-11 0)
(-4.30375e-07 -6.20902e-12 0)
(-4.30452e-07 7.93358e-12 0)
(-4.3035e-07 -4.02712e-12 0)
(-4.30403e-07 2.58596e-12 0)
(-4.30369e-07 -1.57945e-12 0)
(-4.30389e-07 1.00282e-12 0)
(-4.30378e-07 -6.95601e-13 0)
(-4.30383e-07 5.63606e-13 0)
(-4.30383e-07 -5.81488e-13 0)
(-4.30378e-07 7.51243e-13 0)
(-4.3039e-07 -1.1129e-12 0)
(-4.30368e-07 1.76981e-12 0)
(-4.30406e-07 -2.89647e-12 0)
(-4.30344e-07 4.58647e-12 0)
(-4.30457e-07 -8.73496e-12 0)
(-4.30354e-07 7.80338e-12 0)
(-4.30804e-07 -4.20807e-11 0)
(-4.32011e-07 -9.07287e-11 0)
)
;

boundaryField
{
    inlet
    {
        type            calculated;
        value           nonuniform List<vector> 
20
(
(-4.31911e-07 -6.72312e-11 0)
(-1.28105e-06 -3.43483e-10 0)
(-2.09971e-06 -6.62403e-10 0)
(-2.86752e-06 -9.30121e-10 0)
(-3.56534e-06 -1.08718e-09 0)
(-4.17577e-06 -1.11009e-09 0)
(-4.68353e-06 -9.97815e-10 0)
(-5.07594e-06 -7.65599e-10 0)
(-5.34318e-06 -4.41095e-10 0)
(-5.47854e-06 -6.06153e-11 0)
(-5.47864e-06 3.34644e-10 0)
(-5.34347e-06 7.02262e-10 0)
(-5.0764e-06 1.00218e-09 0)
(-4.68411e-06 1.20029e-09 0)
(-4.17641e-06 1.27203e-09 0)
(-3.566e-06 1.20594e-09 0)
(-2.86812e-06 1.00717e-09 0)
(-2.10019e-06 7.03445e-10 0)
(-1.28137e-06 3.58346e-10 0)
(-4.32019e-07 6.8368e-11 0)
)
;
    }
    outlet
    {
        type            calculated;
        value           nonuniform List<vector> 
20
(
(-4.31955e-07 6.6429e-11 0)
(-1.28115e-06 3.4274e-10 0)
(-2.09983e-06 6.63214e-10 0)
(-2.86764e-06 9.33118e-10 0)
(-3.56543e-06 1.09141e-09 0)
(-4.17581e-06 1.11329e-09 0)
(-4.68351e-06 9.96906e-10 0)
(-5.07585e-06 7.57078e-10 0)
(-5.34302e-06 4.21493e-10 0)
(-5.47832e-06 2.69514e-11 0)
(-5.47836e-06 -3.84427e-10 0)
(-5.34315e-06 -7.68907e-10 0)
(-5.07606e-06 -1.0848e-09 0)
(-4.68377e-06 -1.29616e-09 0)
(-4.1761e-06 -1.37649e-09 0)
(-3.56573e-06 -1.31245e-09 0)
(-2.86791e-06 -1.10759e-09 0)
(-2.10006e-06 -7.8849e-10 0)
(-1.2813e-06 -4.17853e-10 0)
(-4.32011e-07 -9.07287e-11 0)
)
;
    }
    walls
    {
        type            calculated;
        value           uniform (0 0 0);
    }
    movingWall
    {
        type            calculated;
        value           uniform (0 0 0);
    }
    frontAndBack
    {
        type            empty;
    }
}


// ************************************************************************* //
